# Wall shear stress
# Time        	patch         	min           	max           
0.000000e+00	cylinder	(0.000000e+00 0.000000e+00 -3.884625e-04)	(0.000000e+00 0.000000e+00 3.884625e-04)
0.000000e+00	obstacle	(0.000000e+00 0.000000e+00 0.000000e+00)	(0.000000e+00 0.000000e+00 0.000000e+00)
1.000000e+00	cylinder	(-1.040656e-03 -4.991858e-06 -1.419489e-04)	(-5.276718e-04 4.991866e-06 1.419180e-04)
1.000000e+00	obstacle	(-1.833759e-03 -1.087359e-05 -8.077291e-04)	(-6.132707e-05 1.087358e-05 8.080913e-04)
2.000000e+00	cylinder	(-1.021039e-03 -3.643918e-06 -7.773862e-05)	(-4.995751e-04 3.643917e-06 7.773074e-05)
2.000000e+00	obstacle	(-1.688154e-03 -1.050582e-05 -8.054696e-04)	(2.310488e-04 1.050586e-05 8.056968e-04)
3.000000e+00	cylinder	(-9.717119e-04 -3.152937e-06 -6.887175e-05)	(-4.694042e-04 3.152936e-06 6.887307e-05)
3.000000e+00	obstacle	(-1.614271e-03 -1.011886e-05 -8.041575e-04)	(3.412479e-04 1.011879e-05 8.043969e-04)
4.000000e+00	cylinder	(-9.242149e-04 -2.908400e-06 -7.173387e-05)	(-4.041839e-04 2.908399e-06 7.172651e-05)
4.000000e+00	obstacle	(-1.553967e-03 -9.772270e-06 -8.010484e-04)	(3.631136e-04 9.772231e-06 8.012929e-04)
5.000000e+00	cylinder	(-8.830118e-04 -2.776421e-06 -8.141469e-05)	(-3.360003e-04 2.776421e-06 8.140949e-05)
5.000000e+00	obstacle	(-1.501577e-03 -9.441685e-06 -7.966114e-04)	(3.743940e-04 9.441678e-06 7.968632e-04)
6.000000e+00	cylinder	(-8.459538e-04 -2.677397e-06 -8.545692e-05)	(-2.853051e-04 2.677397e-06 8.545302e-05)
6.000000e+00	obstacle	(-1.457190e-03 -9.181643e-06 -7.919145e-04)	(3.772739e-04 9.181643e-06 7.922026e-04)
7.000000e+00	cylinder	(-8.109698e-04 -2.580571e-06 -8.662994e-05)	(-2.467196e-04 2.580571e-06 8.662722e-05)
7.000000e+00	obstacle	(-1.421553e-03 -8.981748e-06 -7.874193e-04)	(3.776699e-04 8.981749e-06 7.877316e-04)
8.000000e+00	cylinder	(-7.783485e-04 -2.490841e-06 -8.636596e-05)	(-2.170686e-04 2.490841e-06 8.636403e-05)
8.000000e+00	obstacle	(-1.393115e-03 -8.828134e-06 -7.837000e-04)	(3.630763e-04 8.828134e-06 7.839427e-04)
9.000000e+00	cylinder	(-7.480311e-04 -2.410402e-06 -8.547597e-05)	(-1.953046e-04 2.410402e-06 8.547451e-05)
9.000000e+00	obstacle	(-1.370155e-03 -8.697166e-06 -7.814222e-04)	(3.415120e-04 8.697166e-06 7.816565e-04)
1.000000e+01	cylinder	(-7.199264e-04 -2.341264e-06 -8.415690e-05)	(-1.784535e-04 2.341264e-06 8.415536e-05)
1.000000e+01	obstacle	(-1.350409e-03 -8.585430e-06 -7.795121e-04)	(3.224293e-04 8.585430e-06 7.796936e-04)
1.100000e+01	cylinder	(-6.939114e-04 -2.281462e-06 -8.256153e-05)	(-1.648872e-04 2.281462e-06 8.255972e-05)
1.100000e+01	obstacle	(-1.333130e-03 -8.492734e-06 -7.775700e-04)	(3.047709e-04 8.492734e-06 7.778283e-04)
1.200000e+01	cylinder	(-6.697756e-04 -2.227395e-06 -8.088737e-05)	(-1.539625e-04 2.227395e-06 8.088503e-05)
1.200000e+01	obstacle	(-1.318938e-03 -8.410696e-06 -7.754069e-04)	(2.883968e-04 8.410696e-06 7.756270e-04)
1.300000e+01	cylinder	(-6.472729e-04 -2.178248e-06 -7.940150e-05)	(-1.450923e-04 2.178248e-06 7.939802e-05)
1.300000e+01	obstacle	(-1.306937e-03 -8.340565e-06 -7.734741e-04)	(2.738089e-04 8.340565e-06 7.736439e-04)
1.400000e+01	cylinder	(-6.262130e-04 -2.132916e-06 -7.832779e-05)	(-1.378367e-04 2.132916e-06 7.832394e-05)
1.400000e+01	obstacle	(-1.296599e-03 -8.280535e-06 -7.717298e-04)	(2.604905e-04 8.280535e-06 7.718438e-04)
1.500000e+01	cylinder	(-6.064190e-04 -2.091645e-06 -7.731645e-05)	(-1.314313e-04 2.091645e-06 7.731966e-05)
1.500000e+01	obstacle	(-1.287712e-03 -8.228386e-06 -7.701476e-04)	(2.477180e-04 8.228386e-06 7.702145e-04)
1.600000e+01	cylinder	(-5.878943e-04 -2.053178e-06 -7.776920e-05)	(-1.257134e-04 2.053178e-06 7.777204e-05)
1.600000e+01	obstacle	(-1.280126e-03 -8.183867e-06 -7.687179e-04)	(2.351166e-04 8.183867e-06 7.687353e-04)
1.700000e+01	cylinder	(-5.805681e-04 -2.016935e-06 -7.810268e-05)	(-1.207076e-04 2.016935e-06 7.810540e-05)
1.700000e+01	obstacle	(-1.273698e-03 -8.147049e-06 -7.674579e-04)	(2.222862e-04 8.147049e-06 7.674079e-04)
1.800000e+01	cylinder	(-5.805683e-04 -1.982809e-06 -7.835887e-05)	(-1.163587e-04 1.982809e-06 7.836161e-05)
1.800000e+01	obstacle	(-1.268257e-03 -8.116966e-06 -7.663677e-04)	(2.091398e-04 8.116966e-06 7.662912e-04)
1.900000e+01	cylinder	(-5.805684e-04 -1.949185e-06 -7.849108e-05)	(-1.125985e-04 1.949185e-06 7.849309e-05)
1.900000e+01	obstacle	(-1.263793e-03 -8.092596e-06 -7.652963e-04)	(1.957034e-04 8.092596e-06 7.652515e-04)
2.000000e+01	cylinder	(-5.805686e-04 -1.918141e-06 -7.848518e-05)	(-1.092988e-04 1.918141e-06 7.848749e-05)
2.000000e+01	obstacle	(-1.260311e-03 -8.073172e-06 -7.642799e-04)	(1.821552e-04 8.073173e-06 7.642483e-04)
2.100000e+01	cylinder	(-5.805687e-04 -1.889156e-06 -7.835168e-05)	(-1.063323e-04 1.889156e-06 7.835444e-05)
2.100000e+01	obstacle	(-1.257734e-03 -8.058970e-06 -7.633481e-04)	(1.685862e-04 8.058970e-06 7.633549e-04)
2.200000e+01	cylinder	(-5.805688e-04 -1.861100e-06 -7.808000e-05)	(-1.037617e-04 1.861100e-06 7.808359e-05)
2.200000e+01	obstacle	(-1.255958e-03 -8.049629e-06 -7.624985e-04)	(1.551942e-04 8.049630e-06 7.625656e-04)
2.300000e+01	cylinder	(-5.805689e-04 -1.831270e-06 -7.712299e-05)	(-1.015851e-04 1.831270e-06 7.712696e-05)
2.300000e+01	obstacle	(-1.254893e-03 -8.044307e-06 -7.617294e-04)	(1.422275e-04 8.044307e-06 7.618706e-04)
2.400000e+01	cylinder	(-5.805690e-04 -1.805027e-06 -7.661483e-05)	(-9.986121e-05 1.805027e-06 7.661867e-05)
2.400000e+01	obstacle	(-1.254435e-03 -8.042415e-06 -7.610393e-04)	(1.299650e-04 8.042416e-06 7.612596e-04)
2.500000e+01	cylinder	(-5.805691e-04 -1.780931e-06 -7.613897e-05)	(-9.852029e-05 1.780931e-06 7.614252e-05)
2.500000e+01	obstacle	(-1.254482e-03 -8.043148e-06 -7.604239e-04)	(1.185850e-04 8.043148e-06 7.607193e-04)
2.600000e+01	cylinder	(-5.805691e-04 -1.759004e-06 -7.564414e-05)	(-9.747249e-05 1.759004e-06 7.564823e-05)
2.600000e+01	obstacle	(-1.254935e-03 -8.045715e-06 -7.598767e-04)	(1.082570e-04 8.045715e-06 7.602338e-04)
2.700000e+01	cylinder	(-5.805692e-04 -1.738198e-06 -7.510278e-05)	(-9.666356e-05 1.738198e-06 7.510781e-05)
2.700000e+01	obstacle	(-1.255706e-03 -8.049629e-06 -7.593913e-04)	(9.916198e-05 8.049629e-06 7.597879e-04)
2.800000e+01	cylinder	(-5.805693e-04 -1.718740e-06 -7.445661e-05)	(-9.602997e-05 1.718738e-06 7.446927e-05)
2.800000e+01	obstacle	(-1.256716e-03 -8.054132e-06 -7.589609e-04)	(9.132394e-05 8.054132e-06 7.593680e-04)
2.900000e+01	cylinder	(-5.805693e-04 -1.699847e-06 -7.366918e-05)	(-9.549108e-05 1.699840e-06 7.369716e-05)
2.900000e+01	obstacle	(-1.257902e-03 -8.058798e-06 -7.585714e-04)	(8.468717e-05 8.058798e-06 7.589589e-04)
3.000000e+01	cylinder	(-5.805694e-04 -1.680020e-06 -7.278017e-05)	(-9.499757e-05 1.680004e-06 7.283100e-05)
3.000000e+01	obstacle	(-1.259213e-03 -8.063376e-06 -7.582121e-04)	(7.919471e-05 8.063376e-06 7.585499e-04)
3.100000e+01	cylinder	(-5.805694e-04 -1.658979e-06 -7.188959e-05)	(-9.453328e-05 1.658946e-06 7.195956e-05)
3.100000e+01	obstacle	(-1.260614e-03 -8.067585e-06 -7.578663e-04)	(7.896069e-05 8.067585e-06 7.581243e-04)
3.200000e+01	cylinder	(-5.805694e-04 -1.638571e-06 -7.110998e-05)	(-9.408464e-05 1.638515e-06 7.119373e-05)
3.200000e+01	obstacle	(-1.262085e-03 -8.071172e-06 -7.574993e-04)	(7.869950e-05 8.071173e-06 7.576665e-04)
3.300000e+01	cylinder	(-5.805695e-04 -1.621798e-06 -7.051561e-05)	(-9.365767e-05 1.621726e-06 7.060083e-05)
3.300000e+01	obstacle	(-1.263717e-03 -8.074971e-06 -7.571233e-04)	(7.849329e-05 8.074973e-06 7.572054e-04)
3.400000e+01	cylinder	(-5.805695e-04 -1.611282e-06 -7.001575e-05)	(-9.327383e-05 1.611216e-06 7.009948e-05)
3.400000e+01	obstacle	(-1.265328e-03 -8.078661e-06 -7.567063e-04)	(7.835575e-05 8.078663e-06 7.567102e-04)
3.500000e+01	cylinder	(-5.805695e-04 -1.605913e-06 -6.966208e-05)	(-9.294025e-05 1.605861e-06 6.973722e-05)
3.500000e+01	obstacle	(-1.266829e-03 -8.080396e-06 -7.562274e-04)	(7.826491e-05 8.080399e-06 7.561750e-04)
3.600000e+01	cylinder	(-5.805695e-04 -1.602877e-06 -6.935789e-05)	(-9.264949e-05 1.602840e-06 6.942160e-05)
3.600000e+01	obstacle	(-1.268138e-03 -8.079957e-06 -7.557006e-04)	(7.821322e-05 8.079960e-06 7.556221e-04)
3.700000e+01	cylinder	(-5.805696e-04 -1.600921e-06 -6.903678e-05)	(-9.243413e-05 1.600887e-06 6.908781e-05)
3.700000e+01	obstacle	(-1.269237e-03 -8.078763e-06 -7.551482e-04)	(7.828267e-05 8.078767e-06 7.550827e-04)
3.800000e+01	cylinder	(-5.805696e-04 -1.597830e-06 -6.870428e-05)	(-9.234250e-05 1.597816e-06 6.874755e-05)
3.800000e+01	obstacle	(-1.270186e-03 -8.079351e-06 -7.547427e-04)	(7.852718e-05 8.079365e-06 7.547131e-04)
3.900000e+01	cylinder	(-5.805696e-04 -1.592546e-06 -6.841394e-05)	(-9.240154e-05 1.592547e-06 6.844853e-05)
3.900000e+01	obstacle	(-1.271043e-03 -8.082996e-06 -7.546404e-04)	(7.889318e-05 8.083054e-06 7.546907e-04)
4.000000e+01	cylinder	(-5.805696e-04 -1.585736e-06 -6.815535e-05)	(-9.262710e-05 1.585747e-06 6.817752e-05)
4.000000e+01	obstacle	(-1.272074e-03 -8.090444e-06 -7.547771e-04)	(7.931763e-05 8.090643e-06 7.548991e-04)
4.100000e+01	cylinder	(-5.805696e-04 -1.577078e-06 -6.796471e-05)	(-9.301969e-05 1.577093e-06 6.797065e-05)
4.100000e+01	obstacle	(-1.273866e-03 -8.090443e-06 -7.541063e-04)	(7.980636e-05 8.091125e-06 7.543228e-04)
4.200000e+01	cylinder	(-5.805697e-04 -1.569048e-06 -6.771344e-05)	(-9.357482e-05 1.569060e-06 6.769108e-05)
4.200000e+01	obstacle	(-1.276421e-03 -8.061700e-06 -7.513430e-04)	(8.011302e-05 8.063317e-06 7.516538e-04)
4.300000e+01	cylinder	(-5.805697e-04 -1.560518e-06 -6.734293e-05)	(-9.432253e-05 1.560528e-06 6.731049e-05)
4.300000e+01	obstacle	(-1.278659e-03 -8.000355e-06 -7.468284e-04)	(7.976933e-05 8.003066e-06 7.472097e-04)
4.400000e+01	cylinder	(-5.805697e-04 -1.551552e-06 -6.692330e-05)	(-9.527063e-05 1.551556e-06 6.688902e-05)
4.400000e+01	obstacle	(-1.279223e-03 -7.938458e-06 -7.434969e-04)	(7.865406e-05 7.942074e-06 7.438981e-04)
4.500000e+01	cylinder	(-5.805697e-04 -1.543455e-06 -6.650084e-05)	(-9.638725e-05 1.543460e-06 6.646696e-05)
4.500000e+01	obstacle	(-1.278613e-03 -7.913931e-06 -7.427362e-04)	(7.768203e-05 7.917690e-06 7.431245e-04)
4.600000e+01	cylinder	(-5.805697e-04 -1.535888e-06 -6.609381e-05)	(-9.760745e-05 1.535893e-06 6.606096e-05)
4.600000e+01	obstacle	(-1.277472e-03 -7.931912e-06 -7.444109e-04)	(7.778810e-05 7.935119e-06 7.447421e-04)
4.700000e+01	cylinder	(-5.805697e-04 -1.529917e-06 -6.571397e-05)	(-9.890574e-05 1.529920e-06 6.568368e-05)
4.700000e+01	obstacle	(-1.276512e-03 -7.978130e-06 -7.472295e-04)	(7.914254e-05 7.980331e-06 7.474669e-04)
4.800000e+01	cylinder	(-5.805697e-04 -1.525192e-06 -6.537004e-05)	(-1.002565e-04 1.525194e-06 6.534183e-05)
4.800000e+01	obstacle	(-1.276049e-03 -8.024458e-06 -7.494826e-04)	(8.106476e-05 8.025590e-06 7.496070e-04)
4.900000e+01	cylinder	(-5.805697e-04 -1.521393e-06 -6.505626e-05)	(-1.016191e-04 1.521395e-06 6.503009e-05)
4.900000e+01	obstacle	(-1.276042e-03 -8.053013e-06 -7.506303e-04)	(8.249942e-05 8.053388e-06 7.506328e-04)
5.000000e+01	cylinder	(-5.805697e-04 -1.518785e-06 -6.476986e-05)	(-1.029680e-04 1.518787e-06 6.474574e-05)
5.000000e+01	obstacle	(-1.275920e-03 -8.058782e-06 -7.507698e-04)	(8.276732e-05 8.058813e-06 7.506723e-04)
5.100000e+01	cylinder	(-5.805697e-04 -1.515855e-06 -6.450705e-05)	(-1.042870e-04 1.515857e-06 6.448498e-05)
5.100000e+01	obstacle	(-1.275561e-03 -8.054565e-06 -7.506267e-04)	(8.214597e-05 8.054531e-06 7.504632e-04)
5.200000e+01	cylinder	(-5.805697e-04 -1.512586e-06 -6.426572e-05)	(-1.055689e-04 1.512587e-06 6.424598e-05)
5.200000e+01	obstacle	(-1.275104e-03 -8.049790e-06 -7.505716e-04)	(8.141115e-05 8.049772e-06 7.503873e-04)
5.300000e+01	cylinder	(-5.805697e-04 -1.509211e-06 -6.404496e-05)	(-1.068033e-04 1.509212e-06 6.402778e-05)
5.300000e+01	obstacle	(-1.274709e-03 -8.047919e-06 -7.505868e-04)	(8.121980e-05 8.047927e-06 7.504342e-04)
5.400000e+01	cylinder	(-5.805697e-04 -1.507100e-06 -6.384354e-05)	(-1.079834e-04 1.507101e-06 6.382900e-05)
5.400000e+01	obstacle	(-1.274644e-03 -8.049011e-06 -7.506044e-04)	(8.152572e-05 8.049028e-06 7.505333e-04)
5.500000e+01	cylinder	(-5.805698e-04 -1.504607e-06 -6.365992e-05)	(-1.091176e-04 1.504608e-06 6.364798e-05)
5.500000e+01	obstacle	(-1.274660e-03 -8.051124e-06 -7.506023e-04)	(8.201506e-05 8.051139e-06 7.506519e-04)
5.600000e+01	cylinder	(-5.805698e-04 -1.502535e-06 -6.349278e-05)	(-1.102098e-04 1.502536e-06 6.348322e-05)
5.600000e+01	obstacle	(-1.274698e-03 -8.053039e-06 -7.505857e-04)	(8.240008e-05 8.053051e-06 7.507774e-04)
5.700000e+01	cylinder	(-5.805698e-04 -1.500807e-06 -6.334084e-05)	(-1.113238e-04 1.500808e-06 6.333325e-05)
5.700000e+01	obstacle	(-1.274711e-03 -8.054227e-06 -7.505690e-04)	(8.254350e-05 8.054237e-06 7.509012e-04)
5.800000e+01	cylinder	(-5.805698e-04 -1.499386e-06 -6.320254e-05)	(-1.125045e-04 1.499386e-06 6.319636e-05)
5.800000e+01	obstacle	(-1.274664e-03 -8.054364e-06 -7.505652e-04)	(8.249894e-05 8.054372e-06 7.510127e-04)
5.900000e+01	cylinder	(-5.805698e-04 -1.498338e-06 -6.307633e-05)	(-1.137653e-04 1.498338e-06 6.307087e-05)
5.900000e+01	obstacle	(-1.274541e-03 -8.053274e-06 -7.505845e-04)	(8.237590e-05 8.053281e-06 7.511010e-04)
6.000000e+01	cylinder	(-5.805698e-04 -1.497298e-06 -6.296101e-05)	(-1.150844e-04 1.497299e-06 6.295570e-05)
6.000000e+01	obstacle	(-1.274339e-03 -8.051188e-06 -7.506341e-04)	(8.238213e-05 8.051194e-06 7.511579e-04)
6.100000e+01	cylinder	(-5.805698e-04 -1.496393e-06 -6.285638e-05)	(-1.164222e-04 1.496393e-06 6.285072e-05)
6.100000e+01	obstacle	(-1.274072e-03 -8.048218e-06 -7.507165e-04)	(8.253952e-05 8.048223e-06 7.511798e-04)
6.200000e+01	cylinder	(-5.805698e-04 -1.495326e-06 -6.276165e-05)	(-1.177126e-04 1.495326e-06 6.275527e-05)
6.200000e+01	obstacle	(-1.273764e-03 -8.044899e-06 -7.508288e-04)	(8.272467e-05 8.044904e-06 7.511692e-04)
6.300000e+01	cylinder	(-5.805698e-04 -1.495425e-06 -6.267606e-05)	(-1.188932e-04 1.495425e-06 6.266883e-05)
6.300000e+01	obstacle	(-1.273573e-03 -8.043137e-06 -7.509628e-04)	(8.289079e-05 8.043142e-06 7.511340e-04)
6.400000e+01	cylinder	(-5.805698e-04 -1.495071e-06 -6.259872e-05)	(-1.199268e-04 1.495071e-06 6.259069e-05)
6.400000e+01	obstacle	(-1.273722e-03 -8.045207e-06 -7.511057e-04)	(8.300194e-05 8.045211e-06 7.510862e-04)
6.500000e+01	cylinder	(-5.805698e-04 -1.494799e-06 -6.253161e-05)	(-1.207543e-04 1.494799e-06 6.252375e-05)
6.500000e+01	obstacle	(-1.273810e-03 -8.046356e-06 -7.512415e-04)	(8.304084e-05 8.046360e-06 7.510409e-04)
6.600000e+01	cylinder	(-5.805698e-04 -1.495214e-06 -6.247815e-05)	(-1.214374e-04 1.495214e-06 6.247056e-05)
6.600000e+01	obstacle	(-1.273805e-03 -8.045848e-06 -7.513543e-04)	(8.301414e-05 8.045851e-06 7.510138e-04)
6.700000e+01	cylinder	(-5.805698e-04 -1.495592e-06 -6.243043e-05)	(-1.219885e-04 1.495592e-06 6.242350e-05)
6.700000e+01	obstacle	(-1.273692e-03 -8.043956e-06 -7.514301e-04)	(8.294062e-05 8.043959e-06 7.510183e-04)
6.800000e+01	cylinder	(-5.805698e-04 -1.495826e-06 -6.238647e-05)	(-1.224170e-04 1.495826e-06 6.238088e-05)
6.800000e+01	obstacle	(-1.273468e-03 -8.040768e-06 -7.514598e-04)	(8.288595e-05 8.040771e-06 7.510635e-04)
6.900000e+01	cylinder	(-5.805698e-04 -1.496408e-06 -6.234621e-05)	(-1.227338e-04 1.496408e-06 6.234251e-05)
6.900000e+01	obstacle	(-1.273156e-03 -8.037905e-06 -7.514410e-04)	(8.308657e-05 8.037908e-06 7.511517e-04)
7.000000e+01	cylinder	(-5.805698e-04 -1.496393e-06 -6.230945e-05)	(-1.229517e-04 1.496393e-06 6.230798e-05)
7.000000e+01	obstacle	(-1.273423e-03 -8.041244e-06 -7.513788e-04)	(8.326016e-05 8.041247e-06 7.512777e-04)
7.100000e+01	cylinder	(-5.805698e-04 -1.497361e-06 -6.227578e-05)	(-1.230856e-04 1.497361e-06 6.227657e-05)
7.100000e+01	obstacle	(-1.273699e-03 -8.044218e-06 -7.512856e-04)	(8.338219e-05 8.044221e-06 7.514292e-04)
7.200000e+01	cylinder	(-5.805698e-04 -1.498394e-06 -6.224515e-05)	(-1.231219e-04 1.498394e-06 6.224788e-05)
7.200000e+01	obstacle	(-1.273929e-03 -8.046444e-06 -7.511799e-04)	(8.343783e-05 8.046447e-06 7.515882e-04)
7.300000e+01	cylinder	(-5.805698e-04 -1.499483e-06 -6.221756e-05)	(-1.230967e-04 1.499483e-06 6.222160e-05)
7.300000e+01	obstacle	(-1.274061e-03 -8.047279e-06 -7.510832e-04)	(8.341825e-05 8.047282e-06 7.517331e-04)
7.400000e+01	cylinder	(-5.805698e-04 -1.500578e-06 -6.219292e-05)	(-1.230613e-04 1.500578e-06 6.219741e-05)
7.400000e+01	obstacle	(-1.274056e-03 -8.046299e-06 -7.510172e-04)	(8.332951e-05 8.046301e-06 7.518428e-04)
7.500000e+01	cylinder	(-5.805698e-04 -1.501648e-06 -6.217107e-05)	(-1.230414e-04 1.501648e-06 6.217501e-05)
7.500000e+01	obstacle	(-1.273896e-03 -8.043286e-06 -7.509996e-04)	(8.318711e-05 8.043288e-06 7.518996e-04)
7.600000e+01	cylinder	(-5.805698e-04 -1.502732e-06 -6.215176e-05)	(-1.230565e-04 1.502732e-06 6.215423e-05)
7.600000e+01	obstacle	(-1.273588e-03 -8.038369e-06 -7.510413e-04)	(8.337327e-05 8.038371e-06 7.518931e-04)
7.700000e+01	cylinder	(-5.805698e-04 -1.503703e-06 -6.213469e-05)	(-1.231183e-04 1.503703e-06 6.213493e-05)
7.700000e+01	obstacle	(-1.273162e-03 -8.032058e-06 -7.511436e-04)	(8.360348e-05 8.032059e-06 7.518224e-04)
7.800000e+01	cylinder	(-5.805698e-04 -1.504926e-06 -6.211949e-05)	(-1.232047e-04 1.504926e-06 6.211707e-05)
7.800000e+01	obstacle	(-1.272814e-03 -8.028025e-06 -7.512974e-04)	(8.378925e-05 8.028027e-06 7.516969e-04)
7.900000e+01	cylinder	(-5.805698e-04 -1.506634e-06 -6.210578e-05)	(-1.232752e-04 1.506634e-06 6.210075e-05)
7.900000e+01	obstacle	(-1.273215e-03 -8.032090e-06 -7.514837e-04)	(8.390543e-05 8.032092e-06 7.515361e-04)
8.000000e+01	cylinder	(-5.805698e-04 -1.508369e-06 -6.209322e-05)	(-1.233874e-04 1.508369e-06 6.208606e-05)
8.000000e+01	obstacle	(-1.273535e-03 -8.034961e-06 -7.516762e-04)	(8.393524e-05 8.034964e-06 7.513664e-04)
8.100000e+01	cylinder	(-5.805698e-04 -1.510714e-06 -6.208146e-05)	(-1.235381e-04 1.510714e-06 6.207310e-05)
8.100000e+01	obstacle	(-1.273706e-03 -8.035380e-06 -7.518447e-04)	(8.386699e-05 8.035383e-06 7.512181e-04)
8.200000e+01	cylinder	(-5.805698e-04 -1.511574e-06 -6.207027e-05)	(-1.237207e-04 1.511574e-06 6.206191e-05)
8.200000e+01	obstacle	(-1.273681e-03 -8.034158e-06 -7.519604e-04)	(8.370577e-05 8.034160e-06 7.511205e-04)
8.300000e+01	cylinder	(-5.805698e-04 -1.513330e-06 -6.205945e-05)	(-1.239287e-04 1.513330e-06 6.205241e-05)
8.300000e+01	obstacle	(-1.273441e-03 -8.029539e-06 -7.520012e-04)	(8.347456e-05 8.029540e-06 7.510962e-04)
8.400000e+01	cylinder	(-5.805698e-04 -1.514609e-06 -6.204896e-05)	(-1.241546e-04 1.514610e-06 6.204447e-05)
8.400000e+01	obstacle	(-1.273002e-03 -8.022682e-06 -7.519549e-04)	(8.363457e-05 8.022684e-06 7.511576e-04)
8.500000e+01	cylinder	(-5.805698e-04 -1.516429e-06 -6.203886e-05)	(-1.243906e-04 1.516429e-06 6.203785e-05)
8.500000e+01	obstacle	(-1.272601e-03 -8.019020e-06 -7.518246e-04)	(8.391810e-05 8.019022e-06 7.513034e-04)
8.600000e+01	cylinder	(-5.805698e-04 -1.518248e-06 -6.202935e-05)	(-1.245789e-04 1.518248e-06 6.203221e-05)
8.600000e+01	obstacle	(-1.273204e-03 -8.025477e-06 -7.516261e-04)	(8.412984e-05 8.025479e-06 7.515174e-04)
8.700000e+01	cylinder	(-5.805698e-04 -1.519820e-06 -6.202063e-05)	(-1.246947e-04 1.519820e-06 6.202719e-05)
8.700000e+01	obstacle	(-1.273777e-03 -8.031815e-06 -7.513866e-04)	(8.424303e-05 8.031818e-06 7.517707e-04)
8.800000e+01	cylinder	(-5.805698e-04 -1.522404e-06 -6.201299e-05)	(-1.248065e-04 1.522404e-06 6.202237e-05)
8.800000e+01	obstacle	(-1.274217e-03 -8.035535e-06 -7.511444e-04)	(8.423253e-05 8.035538e-06 7.520249e-04)
8.900000e+01	cylinder	(-5.805698e-04 -1.524547e-06 -6.200662e-05)	(-1.249234e-04 1.524547e-06 6.201745e-05)
8.900000e+01	obstacle	(-1.274434e-03 -8.036486e-06 -7.509417e-04)	(8.408535e-05 8.036488e-06 7.522378e-04)
9.000000e+01	cylinder	(-5.805698e-04 -1.526572e-06 -6.200165e-05)	(-1.250527e-04 1.526572e-06 6.201220e-05)
9.000000e+01	obstacle	(-1.274369e-03 -8.033763e-06 -7.508179e-04)	(8.381365e-05 8.033765e-06 7.523707e-04)
9.100000e+01	cylinder	(-5.805698e-04 -1.528358e-06 -6.199806e-05)	(-1.251988e-04 1.528358e-06 6.200651e-05)
9.100000e+01	obstacle	(-1.274008e-03 -8.027337e-06 -7.508055e-04)	(8.364963e-05 8.027338e-06 7.523953e-04)
9.200000e+01	cylinder	(-5.805698e-04 -1.529975e-06 -6.199575e-05)	(-1.253616e-04 1.529975e-06 6.200045e-05)
9.200000e+01	obstacle	(-1.273384e-03 -8.017683e-06 -7.509159e-04)	(8.406889e-05 8.017684e-06 7.522987e-04)
9.300000e+01	cylinder	(-5.805698e-04 -1.532076e-06 -6.199439e-05)	(-1.255368e-04 1.532076e-06 6.199423e-05)
9.300000e+01	obstacle	(-1.272588e-03 -8.005545e-06 -7.511421e-04)	(8.443636e-05 8.005545e-06 7.520910e-04)
9.400000e+01	cylinder	(-5.805698e-04 -1.534192e-06 -6.199361e-05)	(-1.256290e-04 1.534192e-06 6.198815e-05)
9.400000e+01	obstacle	(-1.273203e-03 -8.014889e-06 -7.514573e-04)	(8.470034e-05 8.014892e-06 7.517958e-04)
9.500000e+01	cylinder	(-5.805698e-04 -1.537007e-06 -6.199291e-05)	(-1.256415e-04 1.537007e-06 6.198261e-05)
9.500000e+01	obstacle	(-1.274022e-03 -8.023387e-06 -7.518174e-04)	(8.481045e-05 8.023390e-06 7.514564e-04)
9.600000e+01	cylinder	(-5.805698e-04 -1.540096e-06 -6.199183e-05)	(-1.256602e-04 1.540096e-06 6.197802e-05)
9.600000e+01	obstacle	(-1.274623e-03 -8.028591e-06 -7.521664e-04)	(8.473790e-05 8.028594e-06 7.511283e-04)
9.700000e+01	cylinder	(-5.805698e-04 -1.542437e-06 -6.198997e-05)	(-1.256979e-04 1.542437e-06 6.197474e-05)
9.700000e+01	obstacle	(-1.274891e-03 -8.029721e-06 -7.524454e-04)	(8.447344e-05 8.029723e-06 7.508707e-04)
9.800000e+01	cylinder	(-5.805698e-04 -1.544717e-06 -6.198714e-05)	(-1.257649e-04 1.544717e-06 6.197292e-05)
9.800000e+01	obstacle	(-1.274755e-03 -8.025522e-06 -7.526027e-04)	(8.404183e-05 8.025524e-06 7.507367e-04)
9.900000e+01	cylinder	(-5.805698e-04 -1.546527e-06 -6.198327e-05)	(-1.258653e-04 1.546527e-06 6.197260e-05)
9.900000e+01	obstacle	(-1.274211e-03 -8.016351e-06 -7.526026e-04)	(8.383651e-05 8.016352e-06 7.507674e-04)
1.000000e+02	cylinder	(-5.805698e-04 -1.548824e-06 -6.197852e-05)	(-1.259969e-04 1.548824e-06 6.197358e-05)
1.000000e+02	obstacle	(-1.273334e-03 -8.002548e-06 -7.524374e-04)	(8.438337e-05 8.002548e-06 7.509713e-04)
1.010000e+02	cylinder	(-5.805698e-04 -1.550425e-06 -6.197323e-05)	(-1.261502e-04 1.550425e-06 6.197547e-05)
1.010000e+02	obstacle	(-1.273401e-03 -8.006999e-06 -7.521196e-04)	(8.484142e-05 8.007001e-06 7.513326e-04)
1.020000e+02	cylinder	(-5.805698e-04 -1.553312e-06 -6.196798e-05)	(-1.261342e-04 1.553312e-06 6.197766e-05)
1.020000e+02	obstacle	(-1.274716e-03 -8.021851e-06 -7.516914e-04)	(8.514392e-05 8.021855e-06 7.518065e-04)
1.030000e+02	cylinder	(-5.805698e-04 -1.556911e-06 -6.196337e-05)	(-1.260717e-04 1.556911e-06 6.197949e-05)
1.030000e+02	obstacle	(-1.275879e-03 -8.033827e-06 -7.512199e-04)	(8.522377e-05 8.033830e-06 7.523253e-04)
1.040000e+02	cylinder	(-5.805698e-04 -1.559374e-06 -6.195992e-05)	(-1.260297e-04 1.559374e-06 6.198044e-05)
1.040000e+02	obstacle	(-1.276693e-03 -8.041706e-06 -7.507858e-04)	(8.504606e-05 8.041709e-06 7.528089e-04)
1.050000e+02	cylinder	(-5.805698e-04 -1.562435e-06 -6.195818e-05)	(-1.260243e-04 1.562435e-06 6.198000e-05)
1.050000e+02	obstacle	(-1.277007e-03 -8.042460e-06 -7.504721e-04)	(8.459993e-05 8.042463e-06 7.531755e-04)
1.060000e+02	cylinder	(-5.805698e-04 -1.565075e-06 -6.195841e-05)	(-1.260668e-04 1.565075e-06 6.197782e-05)
1.060000e+02	obstacle	(-1.276744e-03 -8.035763e-06 -7.503495e-04)	(8.392938e-05 8.035765e-06 7.533553e-04)
1.070000e+02	cylinder	(-5.805698e-04 -1.567265e-06 -6.196047e-05)	(-1.261599e-04 1.567265e-06 6.197400e-05)
1.070000e+02	obstacle	(-1.275934e-03 -8.022203e-06 -7.504704e-04)	(8.428865e-05 8.022203e-06 7.533061e-04)
1.080000e+02	cylinder	(-5.805698e-04 -1.569142e-06 -6.196405e-05)	(-1.262977e-04 1.569142e-06 6.196886e-05)
1.080000e+02	obstacle	(-1.274682e-03 -8.003189e-06 -7.508359e-04)	(8.501660e-05 8.003189e-06 7.530275e-04)
1.090000e+02	cylinder	(-5.805698e-04 -1.571173e-06 -6.196854e-05)	(-1.264604e-04 1.571173e-06 6.196294e-05)
1.090000e+02	obstacle	(-1.274826e-03 -8.009361e-06 -7.514124e-04)	(8.560556e-05 8.009365e-06 7.525449e-04)
1.100000e+02	cylinder	(-5.805698e-04 -1.575173e-06 -6.197311e-05)	(-1.263234e-04 1.575173e-06 6.195708e-05)
1.100000e+02	obstacle	(-1.276751e-03 -8.030857e-06 -7.521269e-04)	(8.594574e-05 8.030862e-06 7.519303e-04)
1.110000e+02	cylinder	(-5.805698e-04 -1.578598e-06 -6.197680e-05)	(-1.261984e-04 1.578598e-06 6.195220e-05)
1.110000e+02	obstacle	(-1.278380e-03 -8.048326e-06 -7.528770e-04)	(8.595015e-05 8.048330e-06 7.512861e-04)
1.120000e+02	cylinder	(-5.805698e-04 -1.582094e-06 -6.197880e-05)	(-1.261114e-04 1.582094e-06 6.194910e-05)
1.120000e+02	obstacle	(-1.279449e-03 -8.058009e-06 -7.535447e-04)	(8.558454e-05 8.058013e-06 7.507306e-04)
1.130000e+02	cylinder	(-5.805698e-04 -1.585654e-06 -6.197843e-05)	(-1.260836e-04 1.585654e-06 6.194849e-05)
1.130000e+02	obstacle	(-1.279769e-03 -8.057420e-06 -7.540151e-04)	(8.485672e-05 8.057423e-06 7.503803e-04)
1.140000e+02	cylinder	(-5.805698e-04 -1.588192e-06 -6.197562e-05)	(-1.261269e-04 1.588192e-06 6.195050e-05)
1.140000e+02	obstacle	(-1.279271e-03 -8.046788e-06 -7.541988e-04)	(8.383733e-05 8.046790e-06 7.503313e-04)
1.150000e+02	cylinder	(-5.805698e-04 -1.590318e-06 -6.197040e-05)	(-1.262409e-04 1.590318e-06 6.195508e-05)
1.150000e+02	obstacle	(-1.278036e-03 -8.026731e-06 -7.540528e-04)	(8.482407e-05 8.026731e-06 7.506361e-04)
1.160000e+02	cylinder	(-5.805698e-04 -1.592032e-06 -6.196331e-05)	(-1.264136e-04 1.592032e-06 6.196159e-05)
1.160000e+02	obstacle	(-1.276246e-03 -8.010038e-06 -7.535850e-04)	(8.578783e-05 8.010042e-06 7.512810e-04)
1.170000e+02	cylinder	(-5.805698e-04 -1.594745e-06 -6.195536e-05)	(-1.265159e-04 1.594745e-06 6.196901e-05)
1.170000e+02	obstacle	(-1.279067e-03 -8.044120e-06 -7.528527e-04)	(8.647987e-05 8.044126e-06 7.522007e-04)
1.180000e+02	cylinder	(-5.805698e-04 -1.599239e-06 -6.194782e-05)	(-1.263091e-04 1.599239e-06 6.197600e-05)
1.180000e+02	obstacle	(-1.281831e-03 -8.075332e-06 -7.519758e-04)	(8.675212e-05 8.075339e-06 7.532747e-04)
1.190000e+02	cylinder	(-5.805698e-04 -1.603687e-06 -6.194208e-05)	(-1.261312e-04 1.603687e-06 6.198121e-05)
1.190000e+02	obstacle	(-1.284042e-03 -8.098489e-06 -7.511128e-04)	(8.653552e-05 8.098495e-06 7.543439e-04)
1.200000e+02	cylinder	(-5.805698e-04 -1.607586e-06 -6.193937e-05)	(-1.260160e-04 1.607586e-06 6.198342e-05)
1.200000e+02	obstacle	(-1.285347e-03 -8.109504e-06 -7.504384e-04)	(8.583012e-05 8.109509e-06 7.552340e-04)
1.210000e+02	cylinder	(-5.805698e-04 -1.611300e-06 -6.194035e-05)	(-1.259881e-04 1.611300e-06 6.198209e-05)
1.210000e+02	obstacle	(-1.285528e-03 -8.105286e-06 -7.501136e-04)	(8.468404e-05 8.105290e-06 7.557893e-04)
1.220000e+02	cylinder	(-5.805698e-04 -1.613662e-06 -6.194529e-05)	(-1.260573e-04 1.613662e-06 6.197695e-05)
1.220000e+02	obstacle	(-1.284569e-03 -8.086830e-06 -7.502653e-04)	(8.451317e-05 8.086832e-06 7.558997e-04)
1.230000e+02	cylinder	(-5.805698e-04 -1.615935e-06 -6.195363e-05)	(-1.262169e-04 1.615935e-06 6.196842e-05)
1.230000e+02	obstacle	(-1.282634e-03 -8.055796e-06 -7.509260e-04)	(8.602062e-05 8.055795e-06 7.555362e-04)
1.240000e+02	cylinder	(-5.805698e-04 -1.616319e-06 -6.196420e-05)	(-1.264452e-04 1.616319e-06 6.195759e-05)
1.240000e+02	obstacle	(-1.281826e-03 -8.056396e-06 -7.520471e-04)	(8.722937e-05 8.056403e-06 7.547240e-04)
1.250000e+02	cylinder	(-5.805698e-04 -1.622521e-06 -6.197528e-05)	(-1.264045e-04 1.622521e-06 6.194625e-05)
1.250000e+02	obstacle	(-1.286147e-03 -8.105555e-06 -7.534753e-04)	(8.792634e-05 8.105564e-06 7.535884e-04)
1.260000e+02	cylinder	(-5.805698e-04 -1.627208e-06 -6.198473e-05)	(-1.261371e-04 1.627208e-06 6.193638e-05)
1.260000e+02	obstacle	(-1.289966e-03 -8.148252e-06 -7.550551e-04)	(8.798011e-05 8.148262e-06 7.523540e-04)
1.270000e+02	cylinder	(-5.805698e-04 -1.633001e-06 -6.199052e-05)	(-1.259265e-04 1.633001e-06 6.193005e-05)
1.270000e+02	obstacle	(-1.292723e-03 -8.175297e-06 -7.565112e-04)	(8.735748e-05 8.175305e-06 7.512597e-04)
1.280000e+02	cylinder	(-5.805698e-04 -1.637257e-06 -6.199123e-05)	(-1.258119e-04 1.637257e-06 6.192881e-05)
1.280000e+02	obstacle	(-1.293994e-03 -8.182853e-06 -7.575930e-04)	(8.606861e-05 8.182861e-06 7.505539e-04)
1.290000e+02	cylinder	(-5.805698e-04 -1.639956e-06 -6.198628e-05)	(-1.258178e-04 1.639956e-06 6.193346e-05)
1.290000e+02	obstacle	(-1.293583e-03 -8.168664e-06 -7.580989e-04)	(8.421202e-05 8.168668e-06 7.504520e-04)
1.300000e+02	cylinder	(-5.805698e-04 -1.642774e-06 -6.197573e-05)	(-1.259472e-04 1.642774e-06 6.194373e-05)
1.300000e+02	obstacle	(-1.291636e-03 -8.133739e-06 -7.579225e-04)	(8.589906e-05 8.133741e-06 7.510816e-04)
1.310000e+02	cylinder	(-5.805698e-04 -1.643237e-06 -6.196100e-05)	(-1.261822e-04 1.643237e-06 6.195810e-05)
1.310000e+02	obstacle	(-1.288501e-03 -8.097010e-06 -7.570772e-04)	(8.785504e-05 8.097020e-06 7.524243e-04)
1.320000e+02	cylinder	(-5.805698e-04 -1.647709e-06 -6.194421e-05)	(-1.264848e-04 1.647709e-06 6.197436e-05)
1.320000e+02	obstacle	(-1.293572e-03 -8.170447e-06 -7.556792e-04)	(8.921998e-05 8.170459e-06 7.543411e-04)
1.330000e+02	cylinder	(-5.805698e-04 -1.654465e-06 -6.192850e-05)	(-1.261937e-04 1.654465e-06 6.198928e-05)
1.330000e+02	obstacle	(-1.299387e-03 -8.237472e-06 -7.539887e-04)	(8.968540e-05 8.237486e-06 7.565638e-04)
1.340000e+02	cylinder	(-5.805698e-04 -1.661568e-06 -6.191715e-05)	(-1.258937e-04 1.661568e-06 6.199947e-05)
1.340000e+02	obstacle	(-1.303981e-03 -8.285552e-06 -7.523537e-04)	(8.917764e-05 8.285566e-06 7.587363e-04)
1.350000e+02	cylinder	(-5.805698e-04 -1.666289e-06 -6.191278e-05)	(-1.256917e-04 1.666289e-06 6.200254e-05)
1.350000e+02	obstacle	(-1.306625e-03 -8.307533e-06 -7.511509e-04)	(8.765066e-05 8.307545e-06 7.604796e-04)
1.360000e+02	cylinder	(-5.805698e-04 -1.670133e-06 -6.191712e-05)	(-1.256289e-04 1.670133e-06 6.199718e-05)
1.360000e+02	obstacle	(-1.306888e-03 -8.297361e-06 -7.507199e-04)	(8.539384e-05 8.297370e-06 7.614650e-04)
1.370000e+02	cylinder	(-5.805698e-04 -1.672435e-06 -6.193015e-05)	(-1.257132e-04 1.672435e-06 6.198315e-05)
1.370000e+02	obstacle	(-1.304818e-03 -8.256401e-06 -7.513129e-04)	(8.556888e-05 8.256404e-06 7.614832e-04)
1.380000e+02	cylinder	(-5.805698e-04 -1.671513e-06 -6.194989e-05)	(-1.259405e-04 1.671513e-06 6.196225e-05)
1.380000e+02	obstacle	(-1.300844e-03 -8.193444e-06 -7.529448e-04)	(8.864704e-05 8.193442e-06 7.605253e-04)