# Wall shear stress
# Time        	patch         	min           	max           
0.000000e+00	cylinder	(0.000000e+00 0.000000e+00 -1.593692e-04)	(0.000000e+00 0.000000e+00 1.593692e-04)
0.000000e+00	obstacle	(0.000000e+00 0.000000e+00 0.000000e+00)	(0.000000e+00 0.000000e+00 0.000000e+00)
