# Residuals   
# Time        	p             	Ux            	Uz            	k             	epsilon       
0             	N/A	N/A	N/A	N/A
0.05          	1.000000e+00	1.000000e+00	1.000000e+00	1.000000e+00	7.272938e-01
0.1           	1.664957e-03	9.932340e-01	3.145626e-01	1.022486e-01	9.740075e-02
0.15          	2.406661e-01	8.855381e-02	9.370902e-02	8.586761e-02	7.867922e-02
0.2           	1.526271e-01	5.959476e-02	5.115959e-02	6.862579e-02	6.143894e-02
0.25          	1.115315e-01	4.737780e-02	3.742611e-02	5.524236e-02	4.783182e-02
0.3           	9.181981e-02	3.967190e-02	3.010485e-02	4.691750e-02	4.563645e-02
0.35          	7.750499e-02	3.456298e-02	2.490351e-02	4.703188e-02	4.365038e-02
0.4           	6.798163e-02	3.138436e-02	2.090843e-02	4.426406e-02	3.997232e-02
0.45          	6.043451e-02	2.877455e-02	1.787667e-02	4.128001e-02	3.619768e-02
0.5           	5.262483e-02	2.656964e-02	1.556445e-02	3.824551e-02	3.304285e-02
0.55          	5.287364e-02	2.481733e-02	1.381969e-02	3.702867e-02	3.402878e-02
0.6           	4.092521e-02	2.315446e-02	1.225776e-02	3.709666e-02	3.309890e-02
0.65          	3.689240e-02	2.196910e-02	1.096520e-02	3.565764e-02	3.107081e-02
0.7           	3.365520e-02	2.100404e-02	9.913906e-03	3.414010e-02	2.901936e-02
0.75          	3.145581e-02	2.022715e-02	9.110806e-03	3.257903e-02	2.800018e-02
0.8           	2.989133e-02	1.955550e-02	8.453825e-03	3.213719e-02	2.846152e-02
0.85          	2.792471e-02	1.899206e-02	7.881663e-03	3.230086e-02	2.796766e-02
0.9           	2.733432e-02	1.851207e-02	7.389498e-03	3.134363e-02	2.657846e-02
0.95          	2.614844e-02	1.810090e-02	6.972291e-03	3.034142e-02	2.517298e-02
1             	2.489838e-02	1.771803e-02	6.613712e-03	2.930796e-02	2.501493e-02
1.05          	2.470269e-02	1.736248e-02	6.307352e-03	2.920696e-02	2.512478e-02
1.1           	2.278789e-02	1.701597e-02	6.042335e-03	2.926707e-02	2.472457e-02
1.15          	2.187187e-02	1.671212e-02	5.807835e-03	2.854016e-02	2.365616e-02
1.2           	2.188948e-02	1.637644e-02	5.601706e-03	2.779087e-02	2.260445e-02
1.25          	2.082979e-02	1.585394e-02	5.436016e-03	2.701417e-02	2.271427e-02
1.3           	2.010127e-02	1.528304e-02	5.289339e-03	2.702035e-02	2.267377e-02
1.35          	1.930802e-02	1.474251e-02	5.151754e-03	2.700660e-02	2.231407e-02
1.4           	1.903523e-02	1.423168e-02	5.027458e-03	2.645665e-02	2.146798e-02
1.45          	1.833406e-02	1.375396e-02	4.915164e-03	2.586118e-02	2.074582e-02
1.5           	1.787270e-02	1.330603e-02	4.817046e-03	2.525331e-02	2.088263e-02
1.55          	1.690711e-02	1.289037e-02	4.736846e-03	2.528754e-02	2.077205e-02
1.6           	1.587673e-02	1.248996e-02	4.654557e-03	2.523555e-02	2.044396e-02
1.65          	1.532359e-02	1.211509e-02	4.585389e-03	2.478195e-02	1.976023e-02
1.7           	1.461763e-02	1.176583e-02	4.520560e-03	2.428896e-02	1.930011e-02
1.75          	1.397890e-02	1.143311e-02	4.461975e-03	2.381754e-02	1.936779e-02
1.8           	1.365966e-02	1.111752e-02	4.408109e-03	2.384018e-02	1.922297e-02
1.85          	1.315499e-02	1.081947e-02	4.358085e-03	2.376204e-02	1.892356e-02
1.9           	1.274441e-02	1.053497e-02	4.311514e-03	2.338450e-02	1.835684e-02
1.95          	1.229863e-02	1.026541e-02	4.266383e-03	2.296162e-02	1.806970e-02
2             	1.197751e-02	1.000923e-02	4.227154e-03	2.257890e-02	1.807721e-02
2.05          	1.155743e-02	9.762245e-03	4.188167e-03	2.259642e-02	1.792193e-02
2.1           	1.113086e-02	9.526323e-03	4.151765e-03	2.250847e-02	1.765258e-02
2.15          	1.093820e-02	9.304512e-03	4.118067e-03	2.219212e-02	1.717325e-02
2.2           	1.048705e-02	9.087104e-03	4.087555e-03	2.182651e-02	1.699586e-02
2.25          	1.033251e-02	8.882709e-03	4.056586e-03	2.151303e-02	1.696530e-02
2.3           	1.043736e-02	8.687259e-03	4.025329e-03	2.151656e-02	1.680809e-02
2.35          	9.843878e-03	8.497257e-03	4.000976e-03	2.142122e-02	1.656160e-02
2.4           	9.604670e-03	8.316651e-03	3.976419e-03	2.114515e-02	1.615051e-02
2.45          	9.334342e-03	8.141019e-03	3.955270e-03	2.081963e-02	1.604278e-02
2.5           	8.986810e-03	7.974195e-03	3.933086e-03	2.056291e-02	1.598604e-02
2.55          	8.910727e-03	7.813023e-03	3.908789e-03	2.054231e-02	1.582652e-02
2.6           	8.769554e-03	7.656300e-03	3.887333e-03	2.044104e-02	1.559546e-02
2.65          	8.671414e-03	7.505899e-03	3.862462e-03	2.019245e-02	1.523689e-02
2.7           	8.543831e-03	7.361139e-03	3.841408e-03	1.989806e-02	1.517287e-02
2.75          	8.536423e-03	7.221007e-03	3.821693e-03	1.968660e-02	1.509615e-02
2.8           	8.092852e-03	7.085788e-03	3.801221e-03	1.964732e-02	1.493878e-02
2.85          	8.080856e-03	6.954843e-03	3.781664e-03	1.953890e-02	1.472293e-02
2.9           	7.728091e-03	6.828444e-03	3.761332e-03	1.930617e-02	1.441038e-02
2.95          	7.834652e-03	6.705717e-03	3.738285e-03	1.903577e-02	1.436642e-02
3             	7.607030e-03	6.587683e-03	3.718708e-03	1.885951e-02	1.427637e-02
3.05          	7.576919e-03	6.472567e-03	3.698581e-03	1.880614e-02	1.412250e-02
3.1           	7.380310e-03	6.361040e-03	3.679891e-03	1.869193e-02	1.392237e-02
3.15          	7.409089e-03	6.253592e-03	3.659380e-03	1.846915e-02	1.365444e-02
3.2           	7.313132e-03	6.149254e-03	3.638708e-03	1.821395e-02	1.361357e-02
3.25          	7.486186e-03	6.047757e-03	3.620333e-03	1.805512e-02	1.351439e-02
3.3           	7.228159e-03	5.949647e-03	3.604484e-03	1.798428e-02	1.336206e-02
3.35          	7.231681e-03	5.854018e-03	3.588902e-03	1.786406e-02	1.316874e-02
3.4           	7.174393e-03	5.761338e-03	3.570398e-03	1.765254e-02	1.293690e-02
3.45          	7.161794e-03	5.670915e-03	3.552424e-03	1.741610e-02	1.289296e-02
3.5           	7.018331e-03	5.583624e-03	3.535816e-03	1.727651e-02	1.278856e-02
3.55          	7.102318e-03	5.498403e-03	3.515982e-03	1.719526e-02	1.263802e-02
3.6           	7.105735e-03	5.416094e-03	3.498755e-03	1.707052e-02	1.245159e-02
3.65          	7.025717e-03	5.335230e-03	3.479905e-03	1.686795e-02	1.225149e-02
3.7           	6.912612e-03	5.257058e-03	3.460482e-03	1.664927e-02	1.219837e-02
3.75          	7.047065e-03	5.180470e-03	3.440777e-03	1.652407e-02	1.208936e-02
3.8           	6.796667e-03	5.106575e-03	3.426687e-03	1.643766e-02	1.194226e-02
3.85          	6.888291e-03	5.034158e-03	3.408784e-03	1.631351e-02	1.176378e-02
3.9           	6.823583e-03	4.963927e-03	3.391986e-03	1.611895e-02	1.159726e-02
3.95          	6.940885e-03	4.895141e-03	3.375336e-03	1.591330e-02	1.153179e-02
4             	6.957023e-03	4.828032e-03	3.356317e-03	1.579740e-02	1.141722e-02
4.05          	6.766680e-03	4.762879e-03	3.341553e-03	1.570478e-02	1.127214e-02
4.1           	6.728431e-03	4.699248e-03	3.324800e-03	1.558017e-02	1.110091e-02
4.15          	6.827254e-03	4.637022e-03	3.309095e-03	1.539391e-02	1.095918e-02
4.2           	6.804084e-03	4.576385e-03	3.291313e-03	1.520053e-02	1.088317e-02
4.25          	6.783776e-03	4.516844e-03	3.274125e-03	1.509062e-02	1.076563e-02
4.3           	6.773389e-03	4.458912e-03	3.257759e-03	1.499429e-02	1.061951e-02
4.35          	6.833436e-03	4.402195e-03	3.240965e-03	1.486944e-02	1.045541e-02
4.4           	6.695582e-03	4.346997e-03	3.226688e-03	1.468932e-02	1.033188e-02
4.45          	6.761412e-03	4.292910e-03	3.208589e-03	1.450610e-02	1.024745e-02
4.5           	6.924696e-03	4.239929e-03	3.190674e-03	1.440336e-02	1.012871e-02
4.55          	6.769638e-03	4.188143e-03	3.176165e-03	1.430354e-02	9.988036e-03
4.6           	6.749428e-03	4.137455e-03	3.159494e-03	1.417880e-02	9.832735e-03
4.65          	6.828197e-03	4.087622e-03	3.142526e-03	1.400511e-02	9.721790e-03
4.7           	6.877958e-03	4.038796e-03	3.125883e-03	1.383198e-02	9.632918e-03
4.75          	6.957294e-03	3.990845e-03	3.108133e-03	1.373429e-02	9.515122e-03
4.8           	6.964139e-03	3.944024e-03	3.093925e-03	1.363188e-02	9.379133e-03
4.85          	7.135329e-03	3.897997e-03	3.076472e-03	1.350619e-02	9.232612e-03
4.9           	6.895697e-03	3.852950e-03	3.062563e-03	1.333619e-02	9.131737e-03
4.95          	6.885019e-03	3.808886e-03	3.046428e-03	1.317276e-02	9.039829e-03
5             	7.027677e-03	3.765730e-03	3.031314e-03	1.307891e-02	8.924766e-03
5.05          	6.941542e-03	3.723582e-03	3.016359e-03	1.297648e-02	8.786990e-03
5.1           	6.835837e-03	3.682105e-03	3.001733e-03	1.285198e-02	8.641728e-03
5.15          	6.937996e-03	3.641612e-03	2.985958e-03	1.268931e-02	8.542309e-03
5.2           	6.829283e-03	3.601758e-03	2.972414e-03	1.253566e-02	8.443587e-03
5.25          	6.995136e-03	3.562667e-03	2.955445e-03	1.244610e-02	8.325542e-03
5.3           	6.971166e-03	3.524052e-03	2.940088e-03	1.234465e-02	8.195869e-03
5.35          	6.882565e-03	3.486614e-03	2.929185e-03	1.222256e-02	8.061773e-03
5.4           	6.737070e-03	3.449542e-03	2.914355e-03	1.206664e-02	7.972354e-03
5.45          	6.666520e-03	3.413273e-03	2.899352e-03	1.192386e-02	7.876069e-03
5.5           	6.622911e-03	3.377585e-03	2.886324e-03	1.183635e-02	7.763967e-03
5.55          	6.652785e-03	3.342575e-03	2.871631e-03	1.173547e-02	7.641703e-03
5.6           	6.597386e-03	3.308098e-03	2.858353e-03	1.161567e-02	7.518616e-03
5.65          	6.493167e-03	3.274132e-03	2.842953e-03	1.146802e-02	7.436981e-03
5.7           	6.405747e-03	3.240684e-03	2.828780e-03	1.133487e-02	7.344087e-03
5.75          	6.614905e-03	3.207880e-03	2.813435e-03	1.124934e-02	7.237136e-03
5.8           	6.607441e-03	3.175430e-03	2.799391e-03	1.114864e-02	7.122988e-03
5.85          	6.690276e-03	3.143863e-03	2.786743e-03	1.103112e-02	7.010124e-03
5.9           	6.605844e-03	3.112408e-03	2.771911e-03	1.089142e-02	6.934076e-03
5.95          	6.493003e-03	3.081879e-03	2.759949e-03	1.076859e-02	6.844546e-03
6             	6.388661e-03	3.051625e-03	2.747452e-03	1.068456e-02	6.743505e-03
6.05          	6.570269e-03	3.022007e-03	2.732283e-03	1.058510e-02	6.635995e-03
6.1           	6.427478e-03	2.992722e-03	2.719411e-03	1.047026e-02	6.533206e-03
6.15          	6.501009e-03	2.964015e-03	2.704800e-03	1.033865e-02	6.460816e-03
6.2           	6.480255e-03	2.935611e-03	2.692110e-03	1.022589e-02	6.374909e-03
6.25          	6.516337e-03	2.907926e-03	2.678343e-03	1.014365e-02	6.279541e-03
6.3           	6.542003e-03	2.880353e-03	2.664547e-03	1.004681e-02	6.181452e-03
6.35          	6.656022e-03	2.853720e-03	2.650150e-03	9.935564e-03	6.088966e-03
6.4           	6.455199e-03	2.827207e-03	2.635045e-03	9.810482e-03	6.019157e-03
6.45          	6.780934e-03	2.801504e-03	2.620464e-03	9.707008e-03	5.937275e-03
6.5           	6.382666e-03	2.776082e-03	2.609290e-03	9.626083e-03	5.848131e-03
6.55          	6.381571e-03	2.751253e-03	2.595440e-03	9.532254e-03	5.757901e-03
6.6           	6.252599e-03	2.726524e-03	2.582113e-03	9.425322e-03	5.675639e-03
6.65          	6.296945e-03	2.702439e-03	2.566681e-03	9.307244e-03	5.608529e-03
6.7           	6.356932e-03	2.678496e-03	2.553485e-03	9.212637e-03	5.530737e-03
6.75          	6.369325e-03	2.655085e-03	2.539577e-03	9.140050e-03	5.448065e-03
6.8           	6.265351e-03	2.631773e-03	2.526895e-03	9.055616e-03	5.365187e-03
6.85          	6.353811e-03	2.609561e-03	2.511819e-03	8.959281e-03	5.291553e-03
6.9           	6.182139e-03	2.587680e-03	2.500471e-03	8.854304e-03	5.227313e-03
6.95          	6.331204e-03	2.566352e-03	2.486912e-03	8.771157e-03	5.154030e-03
7             	6.131101e-03	2.545057e-03	2.474325e-03	8.699707e-03	5.077359e-03
7.05          	6.170494e-03	2.524299e-03	2.461236e-03	8.618519e-03	5.001096e-03
7.1           	6.098829e-03	2.503657e-03	2.449198e-03	8.526404e-03	4.935561e-03
7.15          	6.072778e-03	2.483491e-03	2.434379e-03	8.428126e-03	4.874581e-03
7.2           	6.125547e-03	2.463485e-03	2.422473e-03	8.351213e-03	4.806279e-03
7.25          	6.233359e-03	2.443988e-03	2.409641e-03	8.281371e-03	4.736700e-03
7.3           	6.103844e-03	2.424368e-03	2.398308e-03	8.202295e-03	4.669071e-03
7.35          	6.044665e-03	2.405428e-03	2.385769e-03	8.114608e-03	4.612581e-03
7.4           	5.938557e-03	2.386435e-03	2.373134e-03	8.022041e-03	4.557617e-03
7.45          	5.937072e-03	2.368026e-03	2.360179e-03	7.950786e-03	4.496330e-03
7.5           	5.799441e-03	2.349575e-03	2.348336e-03	7.882808e-03	4.433615e-03
7.55          	5.921965e-03	2.331599e-03	2.335246e-03	7.807166e-03	4.370931e-03
7.6           	5.874282e-03	2.313761e-03	2.322695e-03	7.722986e-03	4.320010e-03
7.65          	5.890788e-03	2.296388e-03	2.309166e-03	7.636772e-03	4.268655e-03
7.7           	5.957929e-03	2.279056e-03	2.296694e-03	7.570881e-03	4.212527e-03
7.75          	5.982604e-03	2.262318e-03	2.286512e-03	7.505722e-03	4.155210e-03
7.8           	5.835777e-03	2.245497e-03	2.274787e-03	7.432753e-03	4.098348e-03
7.85          	5.843870e-03	2.229296e-03	2.262005e-03	7.352009e-03	4.052077e-03
7.9           	5.785693e-03	2.212981e-03	2.250758e-03	7.270586e-03	4.003995e-03
7.95          	5.899364e-03	2.197066e-03	2.238849e-03	7.209566e-03	3.952040e-03
8             	5.879598e-03	2.181055e-03	2.225993e-03	7.146212e-03	3.899520e-03
8.05          	5.853167e-03	2.165687e-03	2.216610e-03	7.077007e-03	3.847353e-03
8.1           	5.842610e-03	2.150225e-03	2.206767e-03	6.999361e-03	3.805048e-03
8.15          	5.758831e-03	2.135033e-03	2.195756e-03	6.923746e-03	3.759770e-03
8.2           	5.703117e-03	2.119979e-03	2.185422e-03	6.865696e-03	3.711821e-03
8.25          	5.731102e-03	2.105160e-03	2.172550e-03	6.805505e-03	3.663556e-03
8.3           	5.677111e-03	2.090554e-03	2.163469e-03	6.739251e-03	3.616345e-03
8.35          	5.710366e-03	2.076121e-03	2.152359e-03	6.666453e-03	3.577748e-03
8.4           	5.522660e-03	2.061819e-03	2.141655e-03	6.595661e-03	3.535733e-03
8.45          	5.560219e-03	2.047826e-03	2.130166e-03	6.541402e-03	3.491846e-03
8.5           	5.598825e-03	2.033943e-03	2.119221e-03	6.482950e-03	3.447698e-03
8.55          	5.754574e-03	2.020325e-03	2.108313e-03	6.420612e-03	3.405227e-03
8.6           	5.607534e-03	2.006567e-03	2.097789e-03	6.350964e-03	3.369560e-03
8.65          	5.561249e-03	1.993299e-03	2.086936e-03	6.282518e-03	3.330396e-03
8.7           	5.550967e-03	1.980047e-03	2.077194e-03	6.226734e-03	3.289925e-03
8.75          	5.510352e-03	1.967014e-03	2.066727e-03	6.166897e-03	3.249291e-03
8.8           	5.417609e-03	1.953987e-03	2.057169e-03	6.103247e-03	3.211035e-03
8.85          	5.397879e-03	1.941290e-03	2.047022e-03	6.034295e-03	3.177934e-03
8.9           	5.381801e-03	1.928589e-03	2.037045e-03	5.969763e-03	3.141537e-03
8.95          	5.447545e-03	1.916172e-03	2.026967e-03	5.916750e-03	3.104388e-03
9             	5.448267e-03	1.903844e-03	2.017343e-03	5.859188e-03	3.067046e-03
9.05          	5.477925e-03	1.891750e-03	2.007328e-03	5.799305e-03	3.032691e-03
9.1           	5.420290e-03	1.879757e-03	1.997591e-03	5.733818e-03	3.001316e-03
9.15          	5.383349e-03	1.867987e-03	1.987825e-03	5.674855e-03	2.967197e-03
9.2           	5.501594e-03	1.856313e-03	1.978104e-03	5.623861e-03	2.932825e-03
9.25          	5.544206e-03	1.844827e-03	1.968229e-03	5.569416e-03	2.898492e-03
9.3           	5.438658e-03	1.833366e-03	1.958582e-03	5.512132e-03	2.867857e-03
9.35          	5.476711e-03	1.822154e-03	1.949143e-03	5.450837e-03	2.838678e-03
9.4           	5.359845e-03	1.811062e-03	1.940871e-03	5.396058e-03	2.807220e-03
9.45          	5.406140e-03	1.800149e-03	1.932983e-03	5.347591e-03	2.775731e-03
9.5           	5.474553e-03	1.789303e-03	1.924376e-03	5.295711e-03	2.744215e-03
9.55          	5.482544e-03	1.778517e-03	1.915020e-03	5.241709e-03	2.716524e-03
9.6           	5.310187e-03	1.767971e-03	1.906227e-03	5.184057e-03	2.689160e-03
9.65          	5.319752e-03	1.757462e-03	1.897423e-03	5.133829e-03	2.660116e-03
9.7           	5.283092e-03	1.747082e-03	1.888810e-03	5.087314e-03	2.630972e-03
9.75          	5.401884e-03	1.736829e-03	1.880173e-03	5.038773e-03	2.601803e-03
9.8           	5.361153e-03	1.726721e-03	1.872436e-03	4.987205e-03	2.576480e-03
9.85          	5.241703e-03	1.716584e-03	1.863329e-03	4.933538e-03	2.550870e-03
9.9           	5.158995e-03	1.706660e-03	1.854880e-03	4.886795e-03	2.524087e-03
9.95          	5.208564e-03	1.696824e-03	1.846488e-03	4.842760e-03	2.497095e-03
10            	5.142804e-03	1.687098e-03	1.838351e-03	4.796313e-03	2.470491e-03
10.05         	5.150044e-03	1.677483e-03	1.829882e-03	4.747670e-03	2.447615e-03
10.1          	5.093834e-03	1.667969e-03	1.821649e-03	4.697118e-03	2.423798e-03
10.15         	5.158448e-03	1.658562e-03	1.813330e-03	4.654047e-03	2.399215e-03
10.2          	5.163490e-03	1.649241e-03	1.805310e-03	4.611881e-03	2.374333e-03
10.25         	5.122462e-03	1.640084e-03	1.797242e-03	4.568075e-03	2.350052e-03
10.3          	5.071555e-03	1.630997e-03	1.789238e-03	4.521270e-03	2.329135e-03
10.35         	5.106800e-03	1.622021e-03	1.781538e-03	4.474229e-03	2.306914e-03
10.4          	5.154441e-03	1.613161e-03	1.773967e-03	4.433849e-03	2.284165e-03
10.45         	5.304274e-03	1.604387e-03	1.766584e-03	4.394097e-03	2.261139e-03
10.5          	5.096738e-03	1.595747e-03	1.759374e-03	4.352425e-03	2.238834e-03
10.55         	5.070103e-03	1.587098e-03	1.751422e-03	4.308295e-03	2.219457e-03
10.6          	5.066142e-03	1.578569e-03	1.744051e-03	4.264156e-03	2.198717e-03
10.65         	5.156398e-03	1.570180e-03	1.736933e-03	4.226857e-03	2.177487e-03
10.7          	5.256818e-03	1.561797e-03	1.729515e-03	4.188861e-03	2.155964e-03
10.75         	5.285479e-03	1.553465e-03	1.721562e-03	4.149744e-03	2.134957e-03
10.8          	4.979601e-03	1.545404e-03	1.715516e-03	4.107563e-03	2.116316e-03
10.85         	5.038857e-03	1.537257e-03	1.708068e-03	4.066486e-03	2.096333e-03
10.9          	4.991312e-03	1.529231e-03	1.700448e-03	4.031218e-03	2.075917e-03
10.95         	5.020869e-03	1.521306e-03	1.694546e-03	3.995444e-03	2.055432e-03
11            	4.933545e-03	1.513486e-03	1.688920e-03	3.958171e-03	2.036154e-03
11.05         	5.042732e-03	1.505654e-03	1.682189e-03	3.918465e-03	2.018673e-03
11.1          	4.987423e-03	1.497962e-03	1.676011e-03	3.879805e-03	2.000032e-03
11.15         	4.993234e-03	1.490252e-03	1.668556e-03	3.846723e-03	1.981018e-03
11.2          	4.885668e-03	1.482715e-03	1.662220e-03	3.812541e-03	1.961963e-03
11.25         	4.903086e-03	1.475239e-03	1.655998e-03	3.777383e-03	1.944472e-03
11.3          	4.893975e-03	1.467786e-03	1.649907e-03	3.739737e-03	1.927967e-03
11.35         	5.021660e-03	1.460413e-03	1.643371e-03	3.703922e-03	1.910564e-03
11.4          	4.909335e-03	1.453146e-03	1.637538e-03	3.672520e-03	1.892867e-03
11.45         	4.904545e-03	1.445888e-03	1.631824e-03	3.640141e-03	1.875199e-03
11.5          	4.940601e-03	1.438817e-03	1.626386e-03	3.606542e-03	1.859325e-03
11.55         	4.957804e-03	1.431701e-03	1.620369e-03	3.571009e-03	1.843905e-03
11.6          	4.962288e-03	1.424709e-03	1.613843e-03	3.537551e-03	1.827729e-03
11.65         	4.865427e-03	1.417744e-03	1.607552e-03	3.507951e-03	1.811339e-03
11.7          	4.771268e-03	1.410917e-03	1.601593e-03	3.477048e-03	1.795073e-03
11.75         	4.803368e-03	1.404075e-03	1.595718e-03	3.444988e-03	1.780555e-03
11.8          	4.768626e-03	1.397331e-03	1.590039e-03	3.411156e-03	1.766109e-03
11.85         	4.906263e-03	1.390612e-03	1.584066e-03	3.380127e-03	1.750956e-03
11.9          	4.909230e-03	1.383959e-03	1.578153e-03	3.351991e-03	1.735635e-03
11.95         	4.823377e-03	1.377419e-03	1.573792e-03	3.322804e-03	1.720497e-03
12            	4.703351e-03	1.370916e-03	1.568066e-03	3.293168e-03	1.707050e-03
12.05         	4.700880e-03	1.364453e-03	1.562574e-03	3.262907e-03	1.693448e-03
12.1          	4.709033e-03	1.358093e-03	1.557413e-03	3.235541e-03	1.679205e-03
12.15         	4.740163e-03	1.351770e-03	1.552088e-03	3.210623e-03	1.664864e-03
12.2          	4.714572e-03	1.345504e-03	1.546721e-03	3.184402e-03	1.650826e-03
12.25         	4.847411e-03	1.339274e-03	1.541311e-03	3.156883e-03	1.638254e-03
12.3          	4.772702e-03	1.333216e-03	1.538132e-03	3.128171e-03	1.625335e-03
12.35         	4.821022e-03	1.327122e-03	1.533412e-03	3.102833e-03	1.611950e-03
12.4          	4.777006e-03	1.321105e-03	1.528915e-03	3.079052e-03	1.598510e-03
12.45         	4.837454e-03	1.315100e-03	1.523839e-03	3.054254e-03	1.585404e-03
12.5          	4.762715e-03	1.309218e-03	1.519152e-03	3.027890e-03	1.573646e-03
12.55         	4.737396e-03	1.303273e-03	1.512968e-03	3.000885e-03	1.561425e-03
12.6          	4.682052e-03	1.297507e-03	1.508030e-03	2.977135e-03	1.548834e-03
12.65         	4.695312e-03	1.291704e-03	1.503453e-03	2.954609e-03	1.536268e-03
12.7          	4.672840e-03	1.286029e-03	1.498828e-03	2.930910e-03	1.524209e-03
12.75         	4.731316e-03	1.280318e-03	1.493907e-03	2.905833e-03	1.513273e-03
12.8          	4.613051e-03	1.274742e-03	1.489162e-03	2.880417e-03	1.501771e-03
12.85         	4.711536e-03	1.269140e-03	1.484710e-03	2.858325e-03	1.490452e-03
12.9          	4.677202e-03	1.263633e-03	1.479729e-03	2.836737e-03	1.479362e-03
12.95         	4.734266e-03	1.258141e-03	1.475580e-03	2.814211e-03	1.468931e-03
13            	4.672314e-03	1.252749e-03	1.471832e-03	2.790300e-03	1.459354e-03
13.05         	4.696158e-03	1.247373e-03	1.467614e-03	2.767615e-03	1.449170e-03
13.1          	4.632194e-03	1.242080e-03	1.462881e-03	2.748047e-03	1.438627e-03
13.15         	4.619567e-03	1.236773e-03	1.458300e-03	2.728465e-03	1.428222e-03
13.2          	4.650940e-03	1.231548e-03	1.453809e-03	2.707863e-03	1.418629e-03
13.25         	4.736540e-03	1.226275e-03	1.448740e-03	2.686074e-03	1.409615e-03
13.3          	4.584229e-03	1.221194e-03	1.445670e-03	2.664959e-03	1.400020e-03
13.35         	4.612434e-03	1.216072e-03	1.441841e-03	2.646696e-03	1.390144e-03
13.4          	4.621322e-03	1.210992e-03	1.437780e-03	2.627867e-03	1.380356e-03
13.45         	4.705337e-03	1.205955e-03	1.433822e-03	2.608122e-03	1.371454e-03
13.5          	4.657234e-03	1.200953e-03	1.429782e-03	2.587298e-03	1.362883e-03
13.55         	4.685256e-03	1.196036e-03	1.425617e-03	2.567600e-03	1.353844e-03
13.6          	4.636820e-03	1.191203e-03	1.422041e-03	2.550360e-03	1.344557e-03
13.65         	4.603108e-03	1.186343e-03	1.417618e-03	2.532389e-03	1.335407e-03
13.7          	4.578412e-03	1.181537e-03	1.413752e-03	2.513285e-03	1.327167e-03
13.75         	4.657340e-03	1.176764e-03	1.409823e-03	2.493521e-03	1.318992e-03
13.8          	4.628867e-03	1.172053e-03	1.406584e-03	2.475097e-03	1.310427e-03
13.85         	4.615092e-03	1.167315e-03	1.401959e-03	2.458812e-03	1.301678e-03
13.9          	4.547438e-03	1.162641e-03	1.397843e-03	2.441499e-03	1.293053e-03
13.95         	4.670426e-03	1.158011e-03	1.394459e-03	2.423214e-03	1.285357e-03
14            	4.548734e-03	1.153468e-03	1.391616e-03	2.404349e-03	1.277533e-03
14.05         	4.641694e-03	1.148887e-03	1.387833e-03	2.387201e-03	1.269432e-03
14.1          	4.611249e-03	1.144366e-03	1.384678e-03	2.371635e-03	1.261185e-03
14.15         	4.620140e-03	1.139906e-03	1.381159e-03	2.355046e-03	1.253179e-03
14.2          	4.654592e-03	1.135457e-03	1.377396e-03	2.337469e-03	1.246068e-03
14.25         	4.675226e-03	1.131038e-03	1.373727e-03	2.319464e-03	1.238649e-03
14.3          	4.648750e-03	1.126662e-03	1.370304e-03	2.303356e-03	1.230929e-03
14.35         	4.742763e-03	1.122309e-03	1.367387e-03	2.288445e-03	1.223142e-03
14.4          	4.664825e-03	1.117998e-03	1.363942e-03	2.272536e-03	1.215603e-03
14.45         	4.623827e-03	1.113731e-03	1.360828e-03	2.255823e-03	1.208925e-03
14.5          	4.594837e-03	1.109516e-03	1.357488e-03	2.238796e-03	1.201891e-03
14.55         	4.639887e-03	1.105300e-03	1.354155e-03	2.223806e-03	1.194646e-03
14.6          	4.564605e-03	1.101160e-03	1.350552e-03	2.209423e-03	1.187299e-03
14.65         	4.573724e-03	1.097034e-03	1.346941e-03	2.194365e-03	1.180285e-03
14.7          	4.690833e-03	1.092925e-03	1.343351e-03	2.178254e-03	1.173989e-03
14.75         	4.598234e-03	1.088922e-03	1.341772e-03	2.162207e-03	1.167329e-03
14.8          	4.500875e-03	1.084871e-03	1.337775e-03	2.148044e-03	1.160433e-03
14.85         	4.557490e-03	1.080847e-03	1.334664e-03	2.134243e-03	1.153491e-03
14.9          	4.498555e-03	1.076870e-03	1.331510e-03	2.119746e-03	1.146964e-03
14.95         	4.506506e-03	1.072874e-03	1.328302e-03	2.104374e-03	1.140947e-03
15            	4.481438e-03	1.068871e-03	1.325102e-03	2.089158e-03	1.134600e-03
15.05         	4.567648e-03	1.064848e-03	1.322101e-03	2.075970e-03	1.128101e-03
15.1          	4.559284e-03	1.060853e-03	1.319208e-03	2.062651e-03	1.121586e-03
15.15         	4.510907e-03	1.056935e-03	1.316064e-03	2.048803e-03	1.115496e-03
15.2          	4.472404e-03	1.053024e-03	1.312926e-03	2.033998e-03	1.109663e-03
15.25         	4.567768e-03	1.049123e-03	1.310056e-03	2.019703e-03	1.103591e-03
15.3          	4.513625e-03	1.045242e-03	1.306519e-03	2.007162e-03	1.097400e-03
15.35         	4.478876e-03	1.041437e-03	1.304450e-03	1.994474e-03	1.091218e-03
15.4          	4.461330e-03	1.037629e-03	1.301654e-03	1.981018e-03	1.085519e-03
15.45         	4.596051e-03	1.033826e-03	1.298959e-03	1.966965e-03	1.079858e-03
15.5          	4.611588e-03	1.030096e-03	1.296721e-03	1.953447e-03	1.074042e-03
15.55         	4.555736e-03	1.026321e-03	1.293157e-03	1.941707e-03	1.068151e-03
15.6          	4.476590e-03	1.022634e-03	1.290312e-03	1.929448e-03	1.062345e-03
15.65         	4.597273e-03	1.018965e-03	1.287454e-03	1.916567e-03	1.057055e-03
15.7          	4.548275e-03	1.015376e-03	1.285427e-03	1.903050e-03	1.051664e-03
15.75         	4.503941e-03	1.011723e-03	1.281735e-03	1.890484e-03	1.046086e-03
15.8          	4.608177e-03	1.008159e-03	1.279081e-03	1.879288e-03	1.040468e-03
15.85         	4.551027e-03	1.004612e-03	1.277306e-03	1.867611e-03	1.034986e-03
15.9          	4.502662e-03	1.001107e-03	1.274359e-03	1.855112e-03	1.029996e-03
15.95         	4.567334e-03	9.975493e-04	1.271725e-03	1.842247e-03	1.024807e-03
16            	4.509345e-03	9.940763e-04	1.269082e-03	1.830417e-03	1.019462e-03
16.05         	4.486426e-03	9.906162e-04	1.266370e-03	1.819780e-03	1.014099e-03
16.1          	4.466789e-03	9.871886e-04	1.263842e-03	1.808542e-03	1.008934e-03
16.15         	4.534855e-03	9.838809e-04	1.261144e-03	1.796626e-03	1.004246e-03
16.2          	4.636343e-03	9.806158e-04	1.258646e-03	1.784398e-03	9.993011e-04
16.25         	4.486542e-03	9.774121e-04	1.257583e-03	1.773381e-03	9.941969e-04
16.3          	4.438735e-03	9.742418e-04	1.255139e-03	1.763122e-03	9.890501e-04
16.35         	4.494440e-03	9.710516e-04	1.252720e-03	1.752315e-03	9.841336e-04
16.4          	4.464051e-03	9.679134e-04	1.250419e-03	1.740798e-03	9.796596e-04
16.45         	4.527898e-03	9.647684e-04	1.247935e-03	1.729300e-03	9.749750e-04
16.5          	4.487175e-03	9.616652e-04	1.245483e-03	1.718935e-03	9.701485e-04
16.55         	4.623898e-03	9.585432e-04	1.242883e-03	1.709042e-03	9.652952e-04
16.6          	4.601774e-03	9.554417e-04	1.239684e-03	1.698543e-03	9.607044e-04
16.65         	4.508767e-03	9.524608e-04	1.238900e-03	1.687478e-03	9.563989e-04
16.7          	4.463659e-03	9.494599e-04	1.236391e-03	1.676624e-03	9.519401e-04
16.75         	4.484099e-03	9.464495e-04	1.233902e-03	1.666910e-03	9.473510e-04
16.8          	4.453943e-03	9.434524e-04	1.231819e-03	1.657306e-03	9.427642e-04
16.85         	4.462281e-03	9.404864e-04	1.229547e-03	1.647245e-03	9.384625e-04
16.9          	4.441392e-03	9.375846e-04	1.227374e-03	1.636599e-03	9.342936e-04
16.95         	4.423776e-03	9.346828e-04	1.225152e-03	1.626377e-03	9.299822e-04
17            	4.399342e-03	9.317993e-04	1.223167e-03	1.617225e-03	9.255957e-04
17.05         	4.426814e-03	9.289209e-04	1.221024e-03	1.607989e-03	9.212476e-04
17.1          	4.389800e-03	9.260984e-04	1.218886e-03	1.598207e-03	9.171722e-04
17.15         	4.416288e-03	9.232447e-04	1.216832e-03	1.588507e-03	9.131647e-04
17.2          	4.402058e-03	9.204587e-04	1.214851e-03	1.579276e-03	9.089807e-04
17.25         	4.450891e-03	9.176480e-04	1.212838e-03	1.571094e-03	9.047893e-04
17.3          	4.436833e-03	9.148922e-04	1.210799e-03	1.562630e-03	9.006622e-04
17.35         	4.473367e-03	9.120848e-04	1.208810e-03	1.553683e-03	8.968727e-04
17.4          	4.468126e-03	9.093709e-04	1.206736e-03	1.544471e-03	8.930008e-04
17.45         	4.483435e-03	9.066334e-04	1.204869e-03	1.535835e-03	8.890075e-04
17.5          	4.504174e-03	9.039477e-04	1.202997e-03	1.528025e-03	8.849440e-04
17.55         	4.571491e-03	9.012670e-04	1.201715e-03	1.519917e-03	8.810338e-04
17.6          	4.454414e-03	8.985814e-04	1.199152e-03	1.511287e-03	8.774015e-04
17.65         	4.460037e-03	8.959081e-04	1.197328e-03	1.502534e-03	8.736887e-04
17.7          	4.444038e-03	8.933025e-04	1.195258e-03	1.494370e-03	8.698375e-04
17.75         	4.492548e-03	8.906485e-04	1.193249e-03	1.486942e-03	8.659671e-04
17.8          	4.534833e-03	8.880859e-04	1.191191e-03	1.479086e-03	8.622064e-04
17.85         	4.563855e-03	8.855038e-04	1.190122e-03	1.470850e-03	8.588340e-04
17.9          	4.551331e-03	8.829506e-04	1.188212e-03	1.462512e-03	8.553037e-04
17.95         	4.457393e-03	8.804203e-04	1.187328e-03	1.454798e-03	8.516864e-04
18            	4.413734e-03	8.779013e-04	1.185739e-03	1.447685e-03	8.480206e-04
18.05         	4.455546e-03	8.753586e-04	1.183946e-03	1.440137e-03	8.445177e-04
18.1          	4.462622e-03	8.728552e-04	1.182356e-03	1.432177e-03	8.412217e-04
18.15         	4.464974e-03	8.703460e-04	1.180657e-03	1.424297e-03	8.378546e-04
18.2          	4.438963e-03	8.678987e-04	1.179159e-03	1.416971e-03	8.343660e-04
18.25         	4.456034e-03	8.654396e-04	1.177493e-03	1.410101e-03	8.308880e-04
18.3          	4.378285e-03	8.630212e-04	1.175941e-03	1.402864e-03	8.275265e-04
18.35         	4.408711e-03	8.605869e-04	1.174479e-03	1.395222e-03	8.243297e-04
18.4          	4.385034e-03	8.581906e-04	1.173098e-03	1.387719e-03	8.210105e-04
18.45         	4.436411e-03	8.558061e-04	1.171621e-03	1.380852e-03	8.176729e-04
18.5          	4.418685e-03	8.534466e-04	1.170195e-03	1.374188e-03	8.143392e-04
18.55         	4.496691e-03	8.510801e-04	1.168738e-03	1.367235e-03	8.111917e-04
18.6          	4.464677e-03	8.487496e-04	1.167560e-03	1.359911e-03	8.080851e-04
18.65         	4.425847e-03	8.463796e-04	1.165442e-03	1.352817e-03	8.048929e-04