# Residuals   
# Time        	p             	Ux            	Uy            	Uz            
0             	N/A	N/A
1             	N/A	N/A
1.00568       	N/A	N/A
1.01214       	N/A	N/A
1.01601       	N/A	N/A
1.02022       	N/A	N/A
1.02459       	N/A	N/A
1.02854       	N/A	N/A
1.03222       	N/A	N/A
1.0358        	N/A	N/A
1.03922       	N/A	N/A
1.04257       	N/A	N/A
1.04591       	N/A	N/A
1.0493        	N/A	N/A
1.05282       	N/A	N/A
1.05644       	N/A	N/A
1.06017       	N/A	N/A
1.06404       	N/A	N/A
1.06805       	N/A	N/A
1.07223       	N/A	N/A
1.07659       	N/A	N/A
1.08086       	N/A	N/A
1.08504       	N/A	N/A
1.0892        	N/A	N/A
1.09338       	N/A	N/A
1.09761       	N/A	N/A
1.10193       	N/A	N/A
1.10636       	N/A	N/A
1.11089       	N/A	N/A
1.1155        	N/A	N/A
1.12015       	N/A	N/A
1.12494       	N/A	N/A
1.12982       	N/A	N/A
1.13485       	N/A	N/A
1.14          	N/A	N/A
1.14522       	N/A	N/A
1.15043       	N/A	N/A
1.15549       	N/A	N/A
1.16045       	N/A	N/A
1.16536       	N/A	N/A
1.17024       	N/A	N/A
1.1751        	N/A	N/A
1.17986       	N/A	N/A
1.1845        	N/A	N/A
1.18895       	N/A	N/A
1.19327       	N/A	N/A
1.19745       	N/A	N/A
1.2015        	N/A	N/A
1.20545       	N/A	N/A
1.20931       	N/A	N/A
1.21306       	N/A	N/A
1.21679       	N/A	N/A
1.22052       	N/A	N/A
1.22427       	N/A	N/A
1.22768       	N/A	N/A
1.23069       	N/A	N/A
1.23331       	N/A	N/A
1.23533       	N/A	N/A
1.23711       	N/A	N/A
1.23893       	N/A	N/A
1.24095       	N/A	N/A
1.24319       	N/A	N/A
1.24554       	N/A	N/A
1.2479        	N/A	N/A
1.25053       	N/A	N/A
1.25294       	N/A	N/A
1.25528       	N/A	N/A
1.25786       	N/A	N/A
1.26045       	N/A	N/A
1.26303       	N/A	N/A
1.2659        	N/A	N/A
1.26912       	N/A	N/A
1.27262       	N/A	N/A
1.27613       	N/A	N/A
1.2797        	N/A	N/A
1.28334       	N/A	N/A
1.28709       	N/A	N/A
1.2909        	N/A	N/A
1.29474       	N/A	N/A
1.29861       	N/A	N/A
1.30257       	N/A	N/A
1.30654       	N/A	N/A
1.31043       	N/A	N/A
1.31422       	N/A	N/A
1.31789       	N/A	N/A
1.3213        	N/A	N/A
1.32476       	N/A	N/A
1.32815       	N/A	N/A
1.3315        	N/A	N/A
1.33482       	N/A	N/A
1.33813       	N/A	N/A
1.34107       	N/A	N/A
1.34362       	N/A	N/A
1.34598       	N/A	N/A
1.34823       	N/A	N/A
1.35016       	N/A	N/A
1.35191       	N/A	N/A
1.35349       	N/A	N/A
1.35485       	N/A	N/A
1.35615       	N/A	N/A
1.35753       	N/A	N/A
1.35899       	N/A	N/A
1.36032       	N/A	N/A
1.36168       	N/A	N/A
1.36306       	N/A	N/A
1.36451       	N/A	N/A
1.36606       	N/A	N/A
1.36761       	N/A	N/A
1.36921       	N/A	N/A
1.37073       	N/A	N/A
1.37237       	N/A	N/A
1.37419       	N/A	N/A
1.3762        	N/A	N/A
1.37797       	N/A	N/A
1.37966       	N/A	N/A
1.38131       	N/A	N/A
1.38294       	N/A	N/A
1.38456       	N/A	N/A
1.38622       	N/A	N/A
1.38806       	N/A	N/A
1.39009       	N/A	N/A
1.3923        	N/A	N/A
1.39458       	N/A	N/A
1.39709       	N/A	N/A
1.39977       	N/A	N/A
1.40258       	N/A	N/A
1.40528       	N/A	N/A
1.4079        	N/A	N/A
1.41045       	N/A	N/A
1.41294       	N/A	N/A
1.41538       	N/A	N/A
1.41777       	N/A	N/A
1.42017       	N/A	N/A
1.4226        	N/A	N/A
1.42514       	N/A	N/A
1.4278        	N/A	N/A
1.43063       	N/A	N/A
1.43358       	N/A	N/A
1.43652       	N/A	N/A
1.4395        	N/A	N/A
1.44249       	N/A	N/A
1.44552       	N/A	N/A
1.44857       	N/A	N/A
1.45163       	N/A	N/A
1.45472       	N/A	N/A
1.45778       	N/A	N/A
1.46082       	N/A	N/A
1.46385       	N/A	N/A
1.46685       	N/A	N/A
1.46983       	N/A	N/A
1.47279       	N/A	N/A
1.47575       	N/A	N/A
1.47873       	N/A	N/A
1.48171       	N/A	N/A
1.48469       	N/A	N/A
1.48768       	N/A	N/A
1.49071       	N/A	N/A
1.49378       	N/A	N/A
1.49689       	N/A	N/A
1.50005       	N/A	N/A
1.50328       	N/A	N/A
1.50644       	N/A	N/A
1.50955       	N/A	N/A
1.51261       	N/A	N/A
1.51568       	N/A	N/A
1.51876       	N/A	N/A
1.52189       	N/A	N/A
1.52503       	N/A	N/A
1.5282        	N/A	N/A
1.53139       	N/A	N/A
1.53455       	N/A	N/A
1.53766       	N/A	N/A
1.5407        	N/A	N/A
1.5437        	N/A	N/A
1.54664       	N/A	N/A
1.54957       	N/A	N/A
1.55247       	N/A	N/A
1.55538       	N/A	N/A
1.55827       	N/A	N/A
1.56112       	N/A	N/A
1.56395       	N/A	N/A
1.56674       	N/A	N/A
1.5695        	N/A	N/A
1.57223       	N/A	N/A
1.57492       	N/A	N/A
1.57759       	N/A	N/A
1.58023       	N/A	N/A
1.58286       	N/A	N/A
1.58548       	N/A	N/A
1.58809       	N/A	N/A
1.59069       	N/A	N/A
1.59332       	N/A	N/A
1.59597       	N/A	N/A
1.59867       	N/A	N/A
1.6014        	N/A	N/A
1.60417       	N/A	N/A
1.60697       	N/A	N/A
1.6098        	N/A	N/A
1.61267       	N/A	N/A
1.61556       	N/A	N/A
1.61847       	N/A	N/A
1.62141       	N/A	N/A
1.62437       	N/A	N/A
1.62737       	N/A	N/A
1.6304        	N/A	N/A
1.63346       	N/A	N/A
1.63656       	N/A	N/A
1.63972       	N/A	N/A
1.64291       	N/A	N/A
1.64616       	N/A	N/A
1.64943       	N/A	N/A
1.65274       	N/A	N/A
1.65608       	N/A	N/A
1.65945       	N/A	N/A
1.66289       	N/A	N/A
1.66637       	N/A	N/A
1.66988       	N/A	N/A
1.67343       	N/A	N/A
1.67698       	N/A	N/A
1.68053       	N/A	N/A
1.68404       	N/A	N/A
1.68759       	N/A	N/A
1.69114       	N/A	N/A
1.69461       	N/A	N/A
1.69808       	N/A	N/A
1.70155       	N/A	N/A
1.70502       	N/A	N/A
1.70853       	N/A	N/A
1.71209       	N/A	N/A
1.71568       	N/A	N/A
1.71933       	N/A	N/A
1.72302       	N/A	N/A
1.72682       	N/A	N/A
1.73066       	N/A	N/A
1.73457       	N/A	N/A
1.73836       	N/A	N/A
1.7421        	N/A	N/A
1.74601       	N/A	N/A
1.7501        	N/A	N/A
1.7542        	N/A	N/A
1.75823       	N/A	N/A
1.76213       	N/A	N/A
1.76603       	N/A	N/A
1.76986       	N/A	N/A
1.77364       	N/A	N/A
1.77717       	N/A	N/A
1.78031       	N/A	N/A
1.78364       	N/A	N/A
1.78719       	N/A	N/A
1.79073       	N/A	N/A
1.79468       	N/A	N/A
1.79887       	N/A	N/A
1.80298       	N/A	N/A
1.80692       	N/A	N/A
1.8107        	N/A	N/A
1.81371       	N/A	N/A
1.81593       	N/A	N/A
1.81807       	N/A	N/A
1.82031       	N/A	N/A
1.82271       	N/A	N/A
1.82517       	N/A	N/A
1.82778       	N/A	N/A
1.83065       	N/A	N/A
1.83338       	N/A	N/A
1.83611       	N/A	N/A
1.83889       	N/A	N/A
1.84158       	N/A	N/A
1.84391       	N/A	N/A
1.8462        	N/A	N/A
1.84853       	N/A	N/A
1.85086       	N/A	N/A
1.85296       	N/A	N/A
1.85498       	N/A	N/A
1.85691       	N/A	N/A
1.85887       	N/A	N/A
1.86092       	N/A	N/A
1.86306       	N/A	N/A
1.86513       	N/A	N/A
1.86717       	N/A	N/A
1.86932       	N/A	N/A
1.87161       	N/A	N/A
1.87408       	N/A	N/A
1.87655       	N/A	N/A
1.87892       	N/A	N/A
1.88134       	N/A	N/A
1.88372       	N/A	N/A
1.88614       	N/A	N/A
1.88879       	N/A	N/A
1.89126       	N/A	N/A
1.89362       	N/A	N/A
1.89593       	N/A	N/A
1.8982        	N/A	N/A
1.90046       	N/A	N/A
1.90272       	N/A	N/A
1.90498       	N/A	N/A
1.90725       	N/A	N/A
1.90951       	N/A	N/A
1.91183       	N/A	N/A
1.91415       	N/A	N/A
1.91653       	N/A	N/A
1.91892       	N/A	N/A
1.92138       	N/A	N/A
1.92383       	N/A	N/A
1.92637       	N/A	N/A
1.929         	N/A	N/A
1.93163       	N/A	N/A
1.93416       	N/A	N/A
1.93669       	N/A	N/A
1.93923       	N/A	N/A
1.94176       	N/A	N/A
1.94441       	N/A	N/A
1.94705       	N/A	N/A
1.94946       	N/A	N/A
1.95166       	N/A	N/A
1.95386       	N/A	N/A
1.95605       	N/A	N/A
1.95825       	N/A	N/A
1.96057       	N/A	N/A
1.96289       	N/A	N/A
1.96536       	N/A	N/A
1.96767       	N/A	N/A
1.96969       	N/A	N/A
1.97171       	N/A	N/A
1.9736        	N/A	N/A
1.97563       	N/A	N/A
1.97766       	N/A	N/A
1.97989       	N/A	N/A
1.98213       	N/A	N/A
1.98436       	N/A	N/A
1.9866        	N/A	N/A
1.98883       	N/A	N/A
1.99106       	N/A	N/A
1.9933        	N/A	N/A
1.99553       	N/A	N/A
1.99777       	N/A	N/A
2             	N/A	N/A
2.00254       	N/A	N/A
2.00539       	N/A	N/A
2.00853       	N/A	N/A
2.0117        	N/A	N/A
2.01489       	N/A	N/A
2.01811       	N/A	N/A
2.02136       	N/A	N/A
2.02466       	N/A	N/A
2.028         	N/A	N/A
2.03136       	N/A	N/A
2.03471       	N/A	N/A
2.03807       	N/A	N/A
2.04143       	N/A	N/A
2.04479       	N/A	N/A
2.04814       	N/A	N/A
2.05149       	N/A	N/A
2.05484       	N/A	N/A
2.0582        	N/A	N/A
2.06158       	N/A	N/A
2.06497       	N/A	N/A
2.06838       	N/A	N/A
2.07182       	N/A	N/A
2.07529       	N/A	N/A
2.07881       	N/A	N/A
2.08237       	N/A	N/A
2.08597       	N/A	N/A
2.08962       	N/A	N/A
2.09331       	N/A	N/A
2.09701       	N/A	N/A
2.10072       	N/A	N/A
2.10446       	N/A	N/A
2.10814       	N/A	N/A
2.11177       	N/A	N/A
2.11535       	N/A	N/A
2.1189        	N/A	N/A
2.12243       	N/A	N/A
2.12595       	N/A	N/A
2.12947       	N/A	N/A
2.133         	N/A	N/A
2.13654       	N/A	N/A
2.14012       	N/A	N/A
2.14376       	N/A	N/A
2.14749       	N/A	N/A
2.15129       	N/A	N/A
2.15519       	N/A	N/A
2.15917       	N/A	N/A
2.16321       	N/A	N/A
2.16732       	N/A	N/A
2.17148       	N/A	N/A
2.17564       	N/A	N/A
2.17978       	N/A	N/A
2.18391       	N/A	N/A
2.18805       	N/A	N/A
2.19221       	N/A	N/A
2.1964        	N/A	N/A
2.20061       	N/A	N/A
2.20488       	N/A	N/A
2.20923       	N/A	N/A
2.21362       	N/A	N/A
2.21809       	N/A	N/A
2.22263       	N/A	N/A
2.22729       	N/A	N/A
2.23206       	N/A	N/A
2.23698       	N/A	N/A
2.2421        	N/A	N/A
2.2474        	N/A	N/A
2.25282       	N/A	N/A
2.25835       	N/A	N/A
2.26397       	N/A	N/A
2.26967       	N/A	N/A
2.27525       	N/A	N/A
2.28066       	N/A	N/A
2.28587       	N/A	N/A
2.29136       	N/A	N/A
2.29654       	N/A	N/A
2.30175       	N/A	N/A
2.30712       	N/A	N/A
2.31229       	N/A	N/A
2.31724       	N/A	N/A
2.32204       	N/A	N/A
2.32672       	N/A	N/A
2.33127       	N/A	N/A
2.33564       	N/A	N/A
2.33979       	N/A	N/A
2.34375       	N/A	N/A
2.34756       	N/A	N/A
2.35127       	N/A	N/A
2.35489       	N/A	N/A
2.35846       	N/A	N/A
2.36189       	N/A	N/A
2.36523       	N/A	N/A
2.36853       	N/A	N/A
2.37184       	N/A	N/A
2.3752        	N/A	N/A
2.37861       	N/A	N/A
2.38209       	N/A	N/A
2.38558       	N/A	N/A
2.38911       	N/A	N/A
2.39272       	N/A	N/A
2.39643       	N/A	N/A
2.40027       	N/A	N/A
2.40432       	N/A	N/A
2.40846       	N/A	N/A
2.41268       	N/A	N/A
2.417         	N/A	N/A
2.42139       	N/A	N/A
2.42587       	N/A	N/A
2.4305        	N/A	N/A
2.43533       	N/A	N/A
2.44011       	N/A	N/A
2.44478       	N/A	N/A
2.44944       	N/A	N/A
2.45419       	N/A	N/A
2.45911       	N/A	N/A
2.46421       	N/A	N/A
2.46946       	N/A	N/A
2.47499       	N/A	N/A
2.48082       	N/A	N/A
2.487         	N/A	N/A
2.4927        	N/A	N/A
2.49847       	N/A	N/A
2.50482       	N/A	N/A
2.51038       	N/A	N/A
2.51594       	N/A	N/A
2.52157       	N/A	N/A
2.52727       	N/A	N/A
2.53357       	N/A	N/A
2.54043       	N/A	N/A
2.54729       	N/A	N/A
2.55415       	N/A	N/A
2.5609        	N/A	N/A
2.56766       	N/A	N/A
2.57431       	N/A	N/A
2.58096       	N/A	N/A
2.58761       	N/A	N/A
2.59437       	N/A	N/A
2.60125       	N/A	N/A
2.60801       	N/A	N/A
2.61454       	N/A	N/A
2.62107       	N/A	N/A
2.62761       	N/A	N/A
2.63426       	N/A	N/A
2.64091       	N/A	N/A
2.64768       	N/A	N/A
2.65446       	N/A	N/A
2.66123       	N/A	N/A
2.66801       	N/A	N/A
2.67465       	N/A	N/A
2.68116       	N/A	N/A
2.68753       	N/A	N/A
2.69378       	N/A	N/A
2.69991       	N/A	N/A
2.70603       	N/A	N/A
2.71203       	N/A	N/A
2.71791       	N/A	N/A
2.72378       	N/A	N/A
2.72966       	N/A	N/A
2.73554       	N/A	N/A
2.74141       	N/A	N/A
2.74729       	N/A	N/A
2.75317       	N/A	N/A
2.75905       	N/A	N/A
2.76492       	N/A	N/A
2.7708        	N/A	N/A
2.77668       	N/A	N/A
2.7824        	N/A	N/A
2.78798       	N/A	N/A
2.79328       	N/A	N/A
2.79872       	N/A	N/A
2.80402       	N/A	N/A
2.80932       	N/A	N/A
2.81447       	N/A	N/A
2.81962       	N/A	N/A
2.82478       	N/A	N/A
2.82993       	N/A	N/A
2.83508       	N/A	N/A
2.84024       	N/A	N/A
2.84556       	N/A	N/A
2.85089       	N/A	N/A
2.85621       	N/A	N/A
2.86174       	N/A	N/A
2.86727       	N/A	N/A
2.87258       	N/A	N/A
2.87789       	N/A	N/A
2.88298       	N/A	N/A
2.88766       	N/A	N/A
2.89215       	N/A	N/A
2.89665       	N/A	N/A
2.90114       	N/A	N/A
2.90544       	N/A	N/A
2.90938       	N/A	N/A
2.913         	N/A	N/A
2.91663       	N/A	N/A
2.9201        	N/A	N/A
2.92358       	N/A	N/A
2.92705       	N/A	N/A
2.93052       	N/A	N/A
2.934         	N/A	N/A
2.93747       	N/A	N/A
2.94115       	N/A	N/A
2.94483       	N/A	N/A
2.94851       	N/A	N/A
2.95218       	N/A	N/A
2.95617       	N/A	N/A
2.96015       	N/A	N/A
2.96414       	N/A	N/A
2.96812       	N/A	N/A
2.97211       	N/A	N/A
2.97609       	N/A	N/A
2.98008       	N/A	N/A
2.98406       	N/A	N/A
2.98805       	N/A	N/A
2.99203       	N/A	N/A
2.99602       	N/A	N/A
3             	N/A	N/A
3.00442       	N/A	N/A
3.00895       	N/A	N/A
3.01319       	N/A	N/A
3.01687       	N/A	N/A
3.02          	N/A	N/A
3.02304       	N/A	N/A
3.02627       	N/A	N/A
3.0295        	N/A	N/A
3.03284       	N/A	N/A
3.03638       	N/A	N/A
3.03957       	N/A	N/A
3.04253       	N/A	N/A
3.04543       	N/A	N/A
3.04838       	N/A	N/A
3.05159       	N/A	N/A
3.05515       	N/A	N/A
3.05912       	N/A	N/A
3.06354       	N/A	N/A
3.06844       	N/A	N/A
3.0735        	N/A	N/A
3.0786        	N/A	N/A
3.08377       	N/A	N/A
3.08904       	N/A	N/A
3.09443       	N/A	N/A
3.09992       	N/A	N/A
3.10551       	N/A	N/A
3.1112        	N/A	N/A
3.11701       	N/A	N/A
3.12212       	N/A	N/A
3.12754       	N/A	N/A
3.13302       	N/A	N/A
3.1388        	N/A	N/A
3.14487       	N/A	N/A
3.15093       	N/A	N/A
3.15704       	N/A	N/A
3.16324       	N/A	N/A
3.16939       	N/A	N/A
3.17537       	N/A	N/A
3.18134       	N/A	N/A
3.18723       	N/A	N/A
3.19292       	N/A	N/A
3.19868       	N/A	N/A
3.20436       	N/A	N/A
3.21017       	N/A	N/A
3.21598       	N/A	N/A
3.22192       	N/A	N/A
3.22814       	N/A	N/A
3.23452       	N/A	N/A
3.24107       	N/A	N/A
3.2475        	N/A	N/A
3.25387       	N/A	N/A
3.26014       	N/A	N/A
3.26631       	N/A	N/A
3.27237       	N/A	N/A
3.27854       	N/A	N/A
3.28471       	N/A	N/A
3.29087       	N/A	N/A
3.29709       	N/A	N/A
3.30331       	N/A	N/A
3.30959       	N/A	N/A
3.31474       	N/A	N/A
3.31916       	N/A	N/A
3.32301       	N/A	N/A
3.3265        	N/A	N/A
3.32977       	N/A	N/A
3.33287       	N/A	N/A
3.33585       	N/A	N/A
3.33879       	N/A	N/A
3.34173       	N/A	N/A
3.34465       	N/A	N/A
3.34748       	N/A	N/A
3.35023       	N/A	N/A
3.35295       	N/A	N/A
3.35565       	N/A	N/A
3.35835       	N/A	N/A
3.36112       	N/A	N/A
3.36398       	N/A	N/A
3.36698       	N/A	N/A
3.37009       	N/A	N/A
3.37338       	N/A	N/A
3.37701       	N/A	N/A
3.381         	N/A	N/A
3.38542       	N/A	N/A
3.39034       	N/A	N/A
3.39525       	N/A	N/A
3.39984       	N/A	N/A
3.40435       	N/A	N/A
3.40893       	N/A	N/A
3.41358       	N/A	N/A
3.41831       	N/A	N/A
3.42316       	N/A	N/A
3.42801       	N/A	N/A
3.43294       	N/A	N/A
3.43787       	N/A	N/A
3.44169       	N/A	N/A
3.44527       	N/A	N/A
3.44866       	N/A	N/A
3.45184       	N/A	N/A
3.45489       	N/A	N/A
3.4577        	N/A	N/A
3.46009       	N/A	N/A
3.46228       	N/A	N/A
3.46457       	N/A	N/A
3.46669       	N/A	N/A
3.46897       	N/A	N/A
3.47082       	N/A	N/A
3.47265       	N/A	N/A
3.4746        	N/A	N/A
3.47677       	N/A	N/A
3.47899       	N/A	N/A
3.48094       	N/A	N/A
3.48273       	N/A	N/A
3.48449       	N/A	N/A
3.4863        	N/A	N/A
3.48809       	N/A	N/A
3.48973       	N/A	N/A
3.49128       	N/A	N/A
3.49284       	N/A	N/A
3.49443       	N/A	N/A
3.49611       	N/A	N/A
3.49792       	N/A	N/A
3.49966       	N/A	N/A
3.50151       	N/A	N/A
3.50356       	N/A	N/A
3.50572       	N/A	N/A
3.50775       	N/A	N/A
3.50972       	N/A	N/A
3.51162       	N/A	N/A
3.5134        	N/A	N/A
3.51522       	N/A	N/A
3.51725       	N/A	N/A
3.51951       	N/A	N/A
3.52202       	N/A	N/A
3.52482       	N/A	N/A
3.5276        	N/A	N/A
3.53037       	N/A	N/A
3.53322       	N/A	N/A
3.53616       	N/A	N/A
3.5394        	N/A	N/A
3.54303       	N/A	N/A
3.54662       	N/A	N/A
3.54971       	N/A	N/A
3.55307       	N/A	N/A
3.55679       	N/A	N/A
3.56055       	N/A	N/A
3.5647        	N/A	N/A
3.56928       	N/A	N/A
3.57435       	N/A	N/A
3.57873       	N/A	N/A
3.58321       	N/A	N/A
3.58818       	N/A	N/A
3.59367       	N/A	N/A
3.59973       	N/A	N/A
3.60619       	N/A	N/A
3.61216       	N/A	N/A
3.61762       	N/A	N/A
3.62293       	N/A	N/A
3.62824       	N/A	N/A
3.63363       	N/A	N/A
3.63858       	N/A	N/A
3.6434        	N/A	N/A
3.64828       	N/A	N/A
3.65324       	N/A	N/A
3.65812       	N/A	N/A
3.66322       	N/A	N/A
3.66833       	N/A	N/A
3.673         	N/A	N/A
3.67767       	N/A	N/A
3.68241       	N/A	N/A
3.68729       	N/A	N/A
3.69226       	N/A	N/A
3.6973        	N/A	N/A
3.70252       	N/A	N/A
3.70774       	N/A	N/A
3.71305       	N/A	N/A
3.71847       	N/A	N/A
3.72399       	N/A	N/A
3.72951       	N/A	N/A
3.73514       	N/A	N/A
3.7409        	N/A	N/A
3.74679       	N/A	N/A
3.75297       	N/A	N/A
3.75914       	N/A	N/A
3.76548       	N/A	N/A
3.772         	N/A	N/A
3.7787        	N/A	N/A
3.78541       	N/A	N/A
3.79172       	N/A	N/A
3.79784       	N/A	N/A
3.80397       	N/A	N/A
3.80991       	N/A	N/A
3.81567       	N/A	N/A
3.82126       	N/A	N/A
3.82667       	N/A	N/A
3.83193       	N/A	N/A
3.83718       	N/A	N/A
3.84243       	N/A	N/A
3.84768       	N/A	N/A
3.85293       	N/A	N/A
3.85819       	N/A	N/A
3.86325       	N/A	N/A
3.86814       	N/A	N/A
3.87302       	N/A	N/A
3.8779        	N/A	N/A
3.88197       	N/A	N/A
3.88578       	N/A	N/A
3.88935       	N/A	N/A
3.89292       	N/A	N/A
3.89661       	N/A	N/A
3.9003        	N/A	N/A
3.904         	N/A	N/A
3.90769       	N/A	N/A
3.91138       	N/A	N/A
3.91523       	N/A	N/A
3.91909       	N/A	N/A
3.92294       	N/A	N/A
3.92679       	N/A	N/A
3.93086       	N/A	N/A
3.93493       	N/A	N/A
3.93899       	N/A	N/A
3.94281       	N/A	N/A
3.94662       	N/A	N/A
3.95043       	N/A	N/A
3.95456       	N/A	N/A
3.95911       	N/A	N/A
3.96365       	N/A	N/A
3.96819       	N/A	N/A
3.97274       	N/A	N/A
3.97728       	N/A	N/A
3.98183       	N/A	N/A
3.98637       	N/A	N/A
3.99091       	N/A	N/A
3.99546       	N/A	N/A
4             	N/A	N/A
4.0051        	N/A	N/A
4.01079       	N/A	N/A
4.01634       	N/A	N/A
4.02184       	N/A	N/A
4.02743       	N/A	N/A
4.03318       	N/A	N/A
4.03908       	N/A	N/A
4.04483       	N/A	N/A
4.05066       	N/A	N/A
4.05667       	N/A	N/A
4.06275       	N/A	N/A
4.06847       	N/A	N/A
4.07425       	N/A	N/A
4.08019       	N/A	N/A
4.08616       	N/A	N/A
4.09198       	N/A	N/A
4.09776       	N/A	N/A
4.10317       	N/A	N/A
4.10826       	N/A	N/A
4.11322       	N/A	N/A
4.11814       	N/A	N/A
4.1231        	N/A	N/A
4.12811       	N/A	N/A
4.1333        	N/A	N/A
4.13882       	N/A	N/A
4.14366       	N/A	N/A
4.14852       	N/A	N/A
4.15333       	N/A	N/A
4.15814       	N/A	N/A
4.16298       	N/A	N/A
4.16788       	N/A	N/A
4.17277       	N/A	N/A
4.1777        	N/A	N/A
4.18262       	N/A	N/A
4.18751       	N/A	N/A
4.19241       	N/A	N/A
4.1973        	N/A	N/A
4.2022        	N/A	N/A
4.20712       	N/A	N/A
4.21199       	N/A	N/A
4.21691       	N/A	N/A
4.2219        	N/A	N/A
4.22698       	N/A	N/A
4.23217       	N/A	N/A
4.23747       	N/A	N/A
4.24288       	N/A	N/A
4.24836       	N/A	N/A
4.25397       	N/A	N/A
4.25976       	N/A	N/A
4.26577       	N/A	N/A
4.27194       	N/A	N/A
4.27833       	N/A	N/A
4.28483       	N/A	N/A
4.29164       	N/A	N/A
4.29845       	N/A	N/A
4.3054        	N/A	N/A
4.31228       	N/A	N/A
4.31902       	N/A	N/A
4.3257        	N/A	N/A
4.33224       	N/A	N/A
4.33866       	N/A	N/A
4.34508       	N/A	N/A
4.35144       	N/A	N/A
4.3578        	N/A	N/A
4.36416       	N/A	N/A
4.37052       	N/A	N/A
4.37688       	N/A	N/A
4.38323       	N/A	N/A
4.38966       	N/A	N/A
4.39608       	N/A	N/A
4.40244       	N/A	N/A
4.40866       	N/A	N/A
4.41476       	N/A	N/A
4.42073       	N/A	N/A
4.42658       	N/A	N/A
4.43232       	N/A	N/A
4.43794       	N/A	N/A
4.44345       	N/A	N/A
4.44885       	N/A	N/A
4.4541        	N/A	N/A
4.45925       	N/A	N/A
4.46435       	N/A	N/A
4.46936       	N/A	N/A
4.47432       	N/A	N/A
4.47919       	N/A	N/A
4.48396       	N/A	N/A
4.48861       	N/A	N/A
4.49318       	N/A	N/A
4.49766       	N/A	N/A
4.50215       	N/A	N/A
4.50663       	N/A	N/A
4.51112       	N/A	N/A
4.51565       	N/A	N/A
4.52017       	N/A	N/A
4.5247        	N/A	N/A
4.52923       	N/A	N/A
4.53371       	N/A	N/A
4.53819       	N/A	N/A
4.54272       	N/A	N/A
4.54729       	N/A	N/A
4.55187       	N/A	N/A
4.55644       	N/A	N/A
4.56101       	N/A	N/A
4.56558       	N/A	N/A
4.57021       	N/A	N/A
4.57483       	N/A	N/A
4.5795        	N/A	N/A
4.58422       	N/A	N/A
4.589         	N/A	N/A
4.59378       	N/A	N/A
4.59862       	N/A	N/A
4.60351       	N/A	N/A
4.60841       	N/A	N/A
4.61337       	N/A	N/A
4.61814       	N/A	N/A
4.6228        	N/A	N/A
4.62757       	N/A	N/A
4.63241       	N/A	N/A
4.63737       	N/A	N/A
4.64241       	N/A	N/A
4.64752       	N/A	N/A
4.65263       	N/A	N/A
4.65781       	N/A	N/A
4.663         	N/A	N/A
4.66818       	N/A	N/A
4.67345       	N/A	N/A
4.67872       	N/A	N/A
4.68407       	N/A	N/A
4.68952       	N/A	N/A
4.69506       	N/A	N/A
4.70071       	N/A	N/A
4.70658       	N/A	N/A
4.71269       	N/A	N/A
4.71907       	N/A	N/A
4.72561       	N/A	N/A
4.7323        	N/A	N/A
4.73916       	N/A	N/A
4.74621       	N/A	N/A
4.75368       	N/A	N/A
4.76138       	N/A	N/A
4.7699        	N/A	N/A
4.77812       	N/A	N/A
4.78633       	N/A	N/A
4.79488       	N/A	N/A
4.80343       	N/A	N/A
4.81071       	N/A	N/A
4.81662       	N/A	N/A
4.82254       	N/A	N/A
4.82776       	N/A	N/A
4.83254       	N/A	N/A
4.83747       	N/A	N/A
4.84255       	N/A	N/A
4.8478        	N/A	N/A
4.85227       	N/A	N/A
4.85689       	N/A	N/A
4.86166       	N/A	N/A
4.86627       	N/A	N/A
4.87105       	N/A	N/A
4.87549       	N/A	N/A
4.87994       	N/A	N/A
4.88439       	N/A	N/A
4.88901       	N/A	N/A
4.89364       	N/A	N/A
4.89826       	N/A	N/A
4.9031        	N/A	N/A
4.90795       	N/A	N/A
4.91306       	N/A	N/A
4.91818       	N/A	N/A
4.92363       	N/A	N/A
4.92909       	N/A	N/A
4.93454       	N/A	N/A
4.94049       	N/A	N/A
4.94644       	N/A	N/A
4.95239       	N/A	N/A
4.95834       	N/A	N/A
4.9643        	N/A	N/A
4.97025       	N/A	N/A
4.9762        	N/A	N/A
4.98215       	N/A	N/A
4.9881        	N/A	N/A
4.99405       	N/A	N/A
5             	N/A	N/A
5.00662       	N/A	N/A
5.01387       	N/A	N/A
5.02129       	N/A	N/A
5.0287        	N/A	N/A
5.03612       	N/A	N/A
5.04353       	N/A	N/A
5.05083       	N/A	N/A
5.05813       	N/A	N/A
5.06527       	N/A	N/A
5.07163       	N/A	N/A
5.07782       	N/A	N/A
5.08351       	N/A	N/A
5.08913       	N/A	N/A
5.09472       	N/A	N/A
5.10031       	N/A	N/A
5.10583       	N/A	N/A
5.11128       	N/A	N/A
5.11673       	N/A	N/A
5.12218       	N/A	N/A
5.12764       	N/A	N/A
5.13309       	N/A	N/A
5.13807       	N/A	N/A
5.14305       	N/A	N/A
5.14801       	N/A	N/A
5.15266       	N/A	N/A
5.15705       	N/A	N/A
5.16135       	N/A	N/A
5.16563       	N/A	N/A
5.16996       	N/A	N/A
5.17426       	N/A	N/A
5.17854       	N/A	N/A
5.18277       	N/A	N/A
5.18696       	N/A	N/A
5.19111       	N/A	N/A
5.19521       	N/A	N/A
5.19926       	N/A	N/A
5.20328       	N/A	N/A
5.20733       	N/A	N/A
5.21141       	N/A	N/A
5.21556       	N/A	N/A
5.21969       	N/A	N/A
5.22365       	N/A	N/A
5.22753       	N/A	N/A
5.2314        	N/A	N/A
5.2353        	N/A	N/A
5.23924       	N/A	N/A
5.24324       	N/A	N/A
5.24733       	N/A	N/A
5.25154       	N/A	N/A
5.25577       	N/A	N/A
5.2599        	N/A	N/A
5.26404       	N/A	N/A
5.26822       	N/A	N/A
5.2725        	N/A	N/A
5.27688       	N/A	N/A
5.28143       	N/A	N/A
5.28619       	N/A	N/A
5.29121       	N/A	N/A
5.29635       	N/A	N/A
5.3016        	N/A	N/A
5.30697       	N/A	N/A
5.31243       	N/A	N/A
5.31793       	N/A	N/A
5.32343       	N/A	N/A
5.32898       	N/A	N/A
5.33462       	N/A	N/A
5.3403        	N/A	N/A
5.34609       	N/A	N/A
5.35198       	N/A	N/A
5.35798       	N/A	N/A
5.36416       	N/A	N/A
5.37033       	N/A	N/A
5.37682       	N/A	N/A
5.38345       	N/A	N/A
5.38961       	N/A	N/A
5.39554       	N/A	N/A
5.40147       	N/A	N/A
5.40745       	N/A	N/A
5.41252       	N/A	N/A
5.41811       	N/A	N/A
5.42405       	N/A	N/A
5.43005       	N/A	N/A
5.43618       	N/A	N/A
5.44251       	N/A	N/A
5.449         	N/A	N/A
5.4554        	N/A	N/A
5.46166       	N/A	N/A
5.46792       	N/A	N/A
5.47441       	N/A	N/A
5.48032       	N/A	N/A
5.48643       	N/A	N/A
5.49254       	N/A	N/A
5.49806       	N/A	N/A
5.50318       	N/A	N/A
5.50796       	N/A	N/A
5.51256       	N/A	N/A
5.51703       	N/A	N/A
5.52138       	N/A	N/A
5.52521       	N/A	N/A
5.5286        	N/A	N/A
5.5317        	N/A	N/A
5.53465       	N/A	N/A
5.53761       	N/A	N/A
5.54065       	N/A	N/A
5.54354       	N/A	N/A
5.54636       	N/A	N/A
5.54901       	N/A	N/A
5.5515        	N/A	N/A
5.55392       	N/A	N/A
5.55628       	N/A	N/A
5.55862       	N/A	N/A
5.56101       	N/A	N/A
5.56343       	N/A	N/A
5.56579       	N/A	N/A
5.56812       	N/A	N/A
5.57046       	N/A	N/A
5.57285       	N/A	N/A
5.5753        	N/A	N/A
5.57783       	N/A	N/A
5.58047       	N/A	N/A
5.58321       	N/A	N/A
5.5859        	N/A	N/A
5.58861       	N/A	N/A
5.59137       	N/A	N/A
5.59417       	N/A	N/A
5.59671       	N/A	N/A
5.59908       	N/A	N/A
5.60139       	N/A	N/A
5.60357       	N/A	N/A
5.6057        	N/A	N/A
5.60787       	N/A	N/A
5.61011       	N/A	N/A
5.61242       	N/A	N/A
5.61452       	N/A	N/A
5.61654       	N/A	N/A
5.61852       	N/A	N/A
5.62047       	N/A	N/A
5.62239       	N/A	N/A
5.62431       	N/A	N/A
5.62624       	N/A	N/A
5.6282        	N/A	N/A
5.63025       	N/A	N/A
5.63241       	N/A	N/A
5.63462       	N/A	N/A
5.63672       	N/A	N/A
5.63876       	N/A	N/A
5.6408        	N/A	N/A
5.64288       	N/A	N/A
5.64505       	N/A	N/A
5.64732       	N/A	N/A
5.64969       	N/A	N/A
5.65223       	N/A	N/A
5.65503       	N/A	N/A
5.65814       	N/A	N/A
5.66156       	N/A	N/A
5.66512       	N/A	N/A
5.66884       	N/A	N/A
5.67278       	N/A	N/A
5.67677       	N/A	N/A
5.68081       	N/A	N/A
5.68491       	N/A	N/A
5.68916       	N/A	N/A
5.69367       	N/A	N/A
5.69846       	N/A	N/A
5.70259       	N/A	N/A
5.70655       	N/A	N/A
5.71046       	N/A	N/A
5.7146        	N/A	N/A
5.71899       	N/A	N/A
5.72338       	N/A	N/A
5.72777       	N/A	N/A
5.73231       	N/A	N/A
5.73685       	N/A	N/A
5.74138       	N/A	N/A
5.74592       	N/A	N/A
5.75046       	N/A	N/A
5.75508       	N/A	N/A
5.7597        	N/A	N/A
5.76441       	N/A	N/A
5.76912       	N/A	N/A
5.77384       	N/A	N/A
5.77845       	N/A	N/A
5.78307       	N/A	N/A
5.78768       	N/A	N/A
5.7924        	N/A	N/A
5.79712       	N/A	N/A
5.80184       	N/A	N/A
5.80656       	N/A	N/A
5.81127       	N/A	N/A
5.81611       	N/A	N/A
5.82095       	N/A	N/A
5.82593       	N/A	N/A
5.8309        	N/A	N/A
5.83602       	N/A	N/A
5.84115       	N/A	N/A
5.84611       	N/A	N/A
5.85108       	N/A	N/A
5.85604       	N/A	N/A
5.86084       	N/A	N/A
5.86564       	N/A	N/A
5.87044       	N/A	N/A
5.87542       	N/A	N/A
5.8804        	N/A	N/A
5.8856        	N/A	N/A
5.8908        	N/A	N/A
5.896         	N/A	N/A
5.90148       	N/A	N/A
5.90695       	N/A	N/A
5.91276       	N/A	N/A
5.91858       	N/A	N/A
5.9244        	N/A	N/A
5.9307        	N/A	N/A
5.937         	N/A	N/A
5.9433        	N/A	N/A
5.9496        	N/A	N/A
5.9559        	N/A	N/A
5.9622        	N/A	N/A
5.9685        	N/A	N/A
5.9748        	N/A	N/A
5.9811        	N/A	N/A
5.9874        	N/A	N/A
5.9937        	N/A	N/A
6             	N/A	N/A
6.00637       	N/A	N/A
6.0127        	N/A	N/A
6.01903       	N/A	N/A
6.02532       	N/A	N/A
6.0316        	N/A	N/A
6.03781       	N/A	N/A
6.04379       	N/A	N/A
6.04945       	N/A	N/A
6.05485       	N/A	N/A
6.05964       	N/A	N/A
6.06454       	N/A	N/A
6.06939       	N/A	N/A
6.07429       	N/A	N/A
6.07924       	N/A	N/A
6.08424       	N/A	N/A
6.08933       	N/A	N/A
6.09453       	N/A	N/A
6.09989       	N/A	N/A
6.10545       	N/A	N/A
6.11122       	N/A	N/A
6.11726       	N/A	N/A
6.12361       	N/A	N/A
6.13016       	N/A	N/A
6.1368        	N/A	N/A
6.14349       	N/A	N/A
6.15034       	N/A	N/A
6.15736       	N/A	N/A
6.16421       	N/A	N/A
6.17074       	N/A	N/A
6.17693       	N/A	N/A
6.18289       	N/A	N/A
6.18865       	N/A	N/A
6.19424       	N/A	N/A
6.19976       	N/A	N/A
6.20528       	N/A	N/A
6.21076       	N/A	N/A
6.21624       	N/A	N/A
6.22172       	N/A	N/A
6.22713       	N/A	N/A
6.23246       	N/A	N/A
6.23772       	N/A	N/A
6.24294       	N/A	N/A
6.24812       	N/A	N/A
6.25331       	N/A	N/A
6.25849       	N/A	N/A
6.26368       	N/A	N/A
6.26886       	N/A	N/A
6.27409       	N/A	N/A
6.27935       	N/A	N/A
6.28461       	N/A	N/A
6.28991       	N/A	N/A
6.29521       	N/A	N/A
6.3005        	N/A	N/A
6.30584       	N/A	N/A
6.31123       	N/A	N/A
6.31661       	N/A	N/A
6.32199       	N/A	N/A
6.32737       	N/A	N/A
6.33275       	N/A	N/A
6.33813       	N/A	N/A
6.34347       	N/A	N/A
6.34881       	N/A	N/A
6.35414       	N/A	N/A
6.35948       	N/A	N/A
6.36482       	N/A	N/A
6.3702        	N/A	N/A
6.37558       	N/A	N/A
6.38097       	N/A	N/A
6.38635       	N/A	N/A
6.39173       	N/A	N/A
6.39712       	N/A	N/A
6.4025        	N/A	N/A
6.40788       	N/A	N/A
6.41326       	N/A	N/A
6.4187        	N/A	N/A
6.42413       	N/A	N/A
6.42956       	N/A	N/A
6.435         	N/A	N/A
6.44048       	N/A	N/A
6.44597       	N/A	N/A
6.45151       	N/A	N/A
6.45705       	N/A	N/A
6.46264       	N/A	N/A
6.46824       	N/A	N/A
6.47384       	N/A	N/A
6.47944       	N/A	N/A
6.4851        	N/A	N/A
6.49075       	N/A	N/A
6.49641       	N/A	N/A
6.50207       	N/A	N/A
6.50773       	N/A	N/A
6.51339       	N/A	N/A
6.51905       	N/A	N/A
6.5247        	N/A	N/A
6.53036       	N/A	N/A
6.53609       	N/A	N/A
6.54182       	N/A	N/A
6.54754       	N/A	N/A
6.55327       	N/A	N/A
6.559         	N/A	N/A
6.56473       	N/A	N/A
6.57045       	N/A	N/A
6.5761        	N/A	N/A
6.58176       	N/A	N/A
6.58741       	N/A	N/A
6.59306       	N/A	N/A
6.59871       	N/A	N/A
6.60436       	N/A	N/A
6.61002       	N/A	N/A
6.61567       	N/A	N/A