# Wall shear stress
# Time        	patch         	min           	max           
0.000000e+00	cylinder	(0.000000e+00 0.000000e+00 -9.960589e-06)	(0.000000e+00 0.000000e+00 9.960589e-06)
0.000000e+00	obstacle	(0.000000e+00 0.000000e+00 0.000000e+00)	(0.000000e+00 0.000000e+00 0.000000e+00)
1.000000e+00	cylinder	(-2.592018e-05 -1.560060e-07 -4.658081e-06)	(-1.246709e-05 1.560060e-07 4.657745e-06)
1.000000e+00	obstacle	(-4.484893e-05 -1.290788e-07 -1.567658e-05)	(-6.548495e-06 1.290788e-07 1.567722e-05)
2.000000e+00	cylinder	(-2.047553e-05 -1.130767e-07 -2.658962e-06)	(-1.216855e-05 1.130767e-07 2.658146e-06)
2.000000e+00	obstacle	(-3.760550e-05 -1.098330e-07 -1.440515e-05)	(-4.957611e-06 1.098330e-07 1.440665e-05)
3.000000e+00	cylinder	(-1.698096e-05 -9.208678e-08 -2.393805e-06)	(-1.154804e-05 9.208678e-08 2.393843e-06)
3.000000e+00	obstacle	(-3.249986e-05 -9.660967e-08 -1.328450e-05)	(-3.871024e-06 9.660967e-08 1.328637e-05)
4.000000e+00	cylinder	(-1.482525e-05 -7.908907e-08 -2.857314e-06)	(-1.097291e-05 7.908907e-08 2.857335e-06)
4.000000e+00	obstacle	(-2.879004e-05 -8.651007e-08 -1.231862e-05)	(-3.115406e-06 8.651007e-08 1.231936e-05)
5.000000e+00	cylinder	(-1.501430e-05 -7.011611e-08 -3.083309e-06)	(-1.044622e-05 7.011611e-08 3.083323e-06)
5.000000e+00	obstacle	(-2.602911e-05 -7.855668e-08 -1.151033e-05)	(-2.579247e-06 7.855668e-08 1.151110e-05)
6.000000e+00	cylinder	(-1.514065e-05 -6.884382e-08 -3.171866e-06)	(-9.967807e-06 6.884382e-08 3.171894e-06)
6.000000e+00	obstacle	(-2.391235e-05 -7.217254e-08 -1.082714e-05)	(-2.188627e-06 7.217254e-08 1.082801e-05)
7.000000e+00	cylinder	(-1.523370e-05 -6.719065e-08 -3.181843e-06)	(-9.372040e-06 6.719065e-08 3.181882e-06)
7.000000e+00	obstacle	(-2.224603e-05 -6.696853e-08 -1.025107e-05)	(-1.896079e-06 6.696853e-08 1.025191e-05)
8.000000e+00	cylinder	(-1.530481e-05 -6.521554e-08 -3.150917e-06)	(-8.835081e-06 6.521554e-08 3.150961e-06)
8.000000e+00	obstacle	(-2.091546e-05 -6.266521e-08 -9.772446e-06)	(-1.671540e-06 6.266521e-08 9.772076e-06)
9.000000e+00	cylinder	(-1.536089e-05 -6.314204e-08 -3.099779e-06)	(-8.384059e-06 6.314204e-08 3.099828e-06)
9.000000e+00	obstacle	(-1.982179e-05 -5.909621e-08 -9.368484e-06)	(-1.495012e-06 5.909621e-08 9.368131e-06)
1.000000e+01	cylinder	(-1.540606e-05 -6.106600e-08 -3.038652e-06)	(-7.997671e-06 6.106600e-08 3.038704e-06)
1.000000e+01	obstacle	(-1.890687e-05 -5.606801e-08 -9.023716e-06)	(-1.353087e-06 5.606801e-08 9.023384e-06)
1.100000e+01	cylinder	(-1.544295e-05 -5.904375e-08 -2.972967e-06)	(-7.661476e-06 5.904375e-08 2.973021e-06)
1.100000e+01	obstacle	(-1.813580e-05 -5.347880e-08 -8.727711e-06)	(-1.236616e-06 5.347880e-08 8.727398e-06)
1.200000e+01	cylinder	(-1.547338e-05 -5.708453e-08 -2.904040e-06)	(-7.366002e-06 5.708453e-08 2.904095e-06)
1.200000e+01	obstacle	(-1.747317e-05 -5.124046e-08 -8.472190e-06)	(-1.139241e-06 5.124046e-08 8.471889e-06)
1.300000e+01	cylinder	(-1.549846e-05 -5.520864e-08 -2.908307e-06)	(-7.103452e-06 5.520864e-08 2.908306e-06)
1.300000e+01	obstacle	(-1.689556e-05 -4.927257e-08 -8.251576e-06)	(-1.056454e-06 4.927257e-08 8.250143e-06)
1.400000e+01	cylinder	(-1.551941e-05 -5.343102e-08 -2.971385e-06)	(-6.867865e-06 5.343102e-08 2.971384e-06)
1.400000e+01	obstacle	(-1.638687e-05 -4.754418e-08 -8.060059e-06)	(-9.850128e-07 4.754418e-08 8.058651e-06)
1.500000e+01	cylinder	(-1.553708e-05 -5.176640e-08 -3.024960e-06)	(-6.644560e-06 5.176640e-08 3.024960e-06)
1.500000e+01	obstacle	(-1.593783e-05 -4.600505e-08 -7.890804e-06)	(-9.225428e-07 4.600505e-08 7.889421e-06)
1.600000e+01	cylinder	(-1.555192e-05 -5.021017e-08 -3.090048e-06)	(-6.420762e-06 5.021017e-08 3.090047e-06)
1.600000e+01	obstacle	(-1.553798e-05 -4.462482e-08 -7.740280e-06)	(-8.672824e-07 4.462482e-08 7.738921e-06)
1.700000e+01	cylinder	(-1.556438e-05 -4.875212e-08 -3.148835e-06)	(-6.219134e-06 4.875212e-08 3.148834e-06)
1.700000e+01	obstacle	(-1.517732e-05 -4.339060e-08 -7.605629e-06)	(-8.179050e-07 4.339060e-08 7.604293e-06)
1.800000e+01	cylinder	(-1.557488e-05 -4.738607e-08 -3.200209e-06)	(-6.036239e-06 4.738607e-08 3.200208e-06)
1.800000e+01	obstacle	(-1.484996e-05 -4.226997e-08 -7.484527e-06)	(-7.733912e-07 4.226997e-08 7.483214e-06)
1.900000e+01	cylinder	(-1.558375e-05 -4.610475e-08 -3.245126e-06)	(-5.869352e-06 4.610475e-08 3.245126e-06)
1.900000e+01	obstacle	(-1.455112e-05 -4.125095e-08 -7.375059e-06)	(-7.329493e-07 4.125095e-08 7.373767e-06)
2.000000e+01	cylinder	(-1.559125e-05 -4.490147e-08 -3.284425e-06)	(-5.716313e-06 4.490147e-08 3.284425e-06)
2.000000e+01	obstacle	(-1.427703e-05 -4.032289e-08 -7.275644e-06)	(-6.959632e-07 4.032289e-08 7.274372e-06)
2.100000e+01	cylinder	(-1.559760e-05 -4.377041e-08 -3.318832e-06)	(-5.575355e-06 4.377041e-08 3.318832e-06)
2.100000e+01	obstacle	(-1.402800e-05 -3.946939e-08 -7.184964e-06)	(-6.619393e-07 3.946939e-08 7.183712e-06)
2.200000e+01	cylinder	(-1.560299e-05 -4.292062e-08 -3.348980e-06)	(-5.444945e-06 4.292062e-08 3.348979e-06)
2.200000e+01	obstacle	(-1.379809e-05 -3.868224e-08 -7.101927e-06)	(-6.304699e-07 3.868224e-08 7.100693e-06)
2.300000e+01	cylinder	(-1.560757e-05 -4.362405e-08 -3.375416e-06)	(-5.323865e-06 4.362405e-08 3.375416e-06)
2.300000e+01	obstacle	(-1.358470e-05 -3.795377e-08 -7.025610e-06)	(-6.012290e-07 3.795377e-08 7.024393e-06)
2.400000e+01	cylinder	(-1.561146e-05 -4.426108e-08 -3.398619e-06)	(-5.211085e-06 4.426108e-08 3.398618e-06)
2.400000e+01	obstacle	(-1.338601e-05 -3.727815e-08 -6.955228e-06)	(-5.739452e-07 3.727815e-08 6.954029e-06)
2.500000e+01	cylinder	(-1.561477e-05 -4.484006e-08 -3.419000e-06)	(-5.105694e-06 4.484006e-08 3.419000e-06)
2.500000e+01	obstacle	(-1.320046e-05 -3.665102e-08 -6.890116e-06)	(-5.484084e-07 3.665102e-08 6.888932e-06)
2.600000e+01	cylinder	(-1.561759e-05 -4.536789e-08 -3.436919e-06)	(-5.006942e-06 4.536789e-08 3.436919e-06)
2.600000e+01	obstacle	(-1.302671e-05 -3.606592e-08 -6.829702e-06)	(-5.244229e-07 3.606592e-08 6.828534e-06)
2.700000e+01	cylinder	(-1.561999e-05 -4.585062e-08 -3.452688e-06)	(-4.914175e-06 4.585062e-08 3.452688e-06)
2.700000e+01	obstacle	(-1.286358e-05 -3.551870e-08 -6.773494e-06)	(-5.018280e-07 3.551870e-08 6.772340e-06)
2.800000e+01	cylinder	(-1.562202e-05 -4.629346e-08 -3.466577e-06)	(-4.826829e-06 4.629346e-08 3.466577e-06)
2.800000e+01	obstacle	(-1.271115e-05 -3.500562e-08 -6.721068e-06)	(-4.804911e-07 3.500562e-08 6.719927e-06)
2.900000e+01	cylinder	(-1.562375e-05 -4.670084e-08 -3.478818e-06)	(-4.744417e-06 4.670084e-08 3.478818e-06)
2.900000e+01	obstacle	(-1.256910e-05 -3.452372e-08 -6.672055e-06)	(-4.602991e-07 3.452372e-08 6.670928e-06)
3.000000e+01	cylinder	(-1.562522e-05 -4.707663e-08 -3.489615e-06)	(-4.666480e-06 4.707663e-08 3.489615e-06)
3.000000e+01	obstacle	(-1.243490e-05 -3.407035e-08 -6.626133e-06)	(-4.411440e-07 3.407035e-08 6.625018e-06)
3.100000e+01	cylinder	(-1.562647e-05 -4.742431e-08 -3.499146e-06)	(-4.592620e-06 4.742431e-08 3.499146e-06)
3.100000e+01	obstacle	(-1.230791e-05 -3.364302e-08 -6.583020e-06)	(-4.229433e-07 3.364302e-08 6.581916e-06)
3.200000e+01	cylinder	(-1.562752e-05 -4.774683e-08 -3.507568e-06)	(-4.522516e-06 4.774683e-08 3.507568e-06)
3.200000e+01	obstacle	(-1.218753e-05 -3.323952e-08 -6.542465e-06)	(-4.056158e-07 3.323952e-08 6.541373e-06)
3.300000e+01	cylinder	(-1.562842e-05 -4.804686e-08 -3.515016e-06)	(-4.455873e-06 4.804686e-08 3.515016e-06)
3.300000e+01	obstacle	(-1.207325e-05 -3.285779e-08 -6.504265e-06)	(-3.890945e-07 3.285779e-08 6.503166e-06)
3.400000e+01	cylinder	(-1.562917e-05 -4.832664e-08 -3.521607e-06)	(-4.392440e-06 4.832664e-08 3.521607e-06)
3.400000e+01	obstacle	(-1.196458e-05 -3.249633e-08 -6.468714e-06)	(-3.733200e-07 3.249633e-08 6.467103e-06)
3.500000e+01	cylinder	(-1.562980e-05 -4.858818e-08 -3.527446e-06)	(-4.331474e-06 4.858818e-08 3.527446e-06)
3.500000e+01	obstacle	(-1.186110e-05 -3.215340e-08 -6.435107e-06)	(-3.582398e-07 3.215340e-08 6.433072e-06)
3.600000e+01	cylinder	(-1.563033e-05 -4.883323e-08 -3.532620e-06)	(-4.272696e-06 4.883323e-08 3.532620e-06)
3.600000e+01	obstacle	(-1.176245e-05 -3.182767e-08 -6.403293e-06)	(-3.438022e-07 3.182767e-08 6.401272e-06)
3.700000e+01	cylinder	(-1.563077e-05 -4.906340e-08 -3.537210e-06)	(-4.216449e-06 4.906340e-08 3.537210e-06)
3.700000e+01	obstacle	(-1.166827e-05 -3.151786e-08 -6.373133e-06)	(-3.299667e-07 3.151786e-08 6.371126e-06)
3.800000e+01	cylinder	(-1.563114e-05 -4.928010e-08 -3.541284e-06)	(-4.162565e-06 4.928010e-08 3.541284e-06)
3.800000e+01	obstacle	(-1.157869e-05 -3.122273e-08 -6.344505e-06)	(-3.166943e-07 3.122273e-08 6.342511e-06)
3.900000e+01	cylinder	(-1.563145e-05 -4.948445e-08 -3.544902e-06)	(-4.110890e-06 4.948445e-08 3.544902e-06)
3.900000e+01	obstacle	(-1.149441e-05 -3.094141e-08 -6.317298e-06)	(-3.039552e-07 3.094141e-08 6.315315e-06)
4.000000e+01	cylinder	(-1.563169e-05 -4.967763e-08 -3.548115e-06)	(-4.061279e-06 4.967763e-08 3.548115e-06)
4.000000e+01	obstacle	(-1.141372e-05 -3.067273e-08 -6.291412e-06)	(-2.917146e-07 3.067273e-08 6.289442e-06)
4.100000e+01	cylinder	(-1.563190e-05 -4.986059e-08 -3.550969e-06)	(-4.013595e-06 4.986059e-08 3.550969e-06)
4.100000e+01	obstacle	(-1.133638e-05 -3.041607e-08 -6.266759e-06)	(-2.799353e-07 3.041607e-08 6.264800e-06)
4.200000e+01	cylinder	(-1.563206e-05 -5.003411e-08 -3.553505e-06)	(-3.967731e-06 5.003411e-08 3.553505e-06)
4.200000e+01	obstacle	(-1.126217e-05 -3.017055e-08 -6.243255e-06)	(-2.685946e-07 3.017055e-08 6.241308e-06)
4.300000e+01	cylinder	(-1.563218e-05 -5.019905e-08 -3.555760e-06)	(-3.923573e-06 5.019905e-08 3.555760e-06)
4.300000e+01	obstacle	(-1.119091e-05 -2.993538e-08 -6.220824e-06)	(-2.576663e-07 2.993538e-08 6.218888e-06)
4.400000e+01	cylinder	(-1.563228e-05 -5.035602e-08 -3.557764e-06)	(-3.881016e-06 5.035602e-08 3.557764e-06)
4.400000e+01	obstacle	(-1.112241e-05 -2.970995e-08 -6.199398e-06)	(-2.471263e-07 2.970995e-08 6.197472e-06)
4.500000e+01	cylinder	(-1.563236e-05 -5.050578e-08 -3.559549e-06)	(-3.839970e-06 5.050578e-08 3.559549e-06)
4.500000e+01	obstacle	(-1.105652e-05 -2.949363e-08 -6.178914e-06)	(-2.369562e-07 2.949363e-08 6.176998e-06)
4.600000e+01	cylinder	(-1.563241e-05 -5.064892e-08 -3.561143e-06)	(-3.800352e-06 5.064892e-08 3.561143e-06)
4.600000e+01	obstacle	(-1.099310e-05 -2.928581e-08 -6.159313e-06)	(-2.271327e-07 2.928581e-08 6.157406e-06)
4.700000e+01	cylinder	(-1.563245e-05 -5.078588e-08 -3.562564e-06)	(-3.762082e-06 5.078588e-08 3.562564e-06)
4.700000e+01	obstacle	(-1.093198e-05 -2.908611e-08 -6.140541e-06)	(-2.176415e-07 2.908611e-08 6.138644e-06)
4.800000e+01	cylinder	(-1.563247e-05 -5.091718e-08 -3.563833e-06)	(-3.725088e-06 5.091718e-08 3.563833e-06)
4.800000e+01	obstacle	(-1.087307e-05 -2.889391e-08 -6.122552e-06)	(-2.084618e-07 2.889391e-08 6.120664e-06)
4.900000e+01	cylinder	(-1.563248e-05 -5.104315e-08 -3.564965e-06)	(-3.689305e-06 5.104315e-08 3.564965e-06)
4.900000e+01	obstacle	(-1.081623e-05 -2.870890e-08 -6.105300e-06)	(-1.995807e-07 2.870890e-08 6.103422e-06)
5.000000e+01	cylinder	(-1.563249e-05 -5.116418e-08 -3.565975e-06)	(-3.654672e-06 5.116418e-08 3.565975e-06)
5.000000e+01	obstacle	(-1.076135e-05 -2.853064e-08 -6.088745e-06)	(-1.909823e-07 2.853064e-08 6.086875e-06)
5.100000e+01	cylinder	(-1.563248e-05 -5.128060e-08 -3.566877e-06)	(-3.621127e-06 5.128060e-08 3.566877e-06)
5.100000e+01	obstacle	(-1.070835e-05 -2.835878e-08 -6.072846e-06)	(-1.826535e-07 2.835878e-08 6.070984e-06)
5.200000e+01	cylinder	(-1.563246e-05 -5.139269e-08 -3.567680e-06)	(-3.588616e-06 5.139269e-08 3.567680e-06)
5.200000e+01	obstacle	(-1.065713e-05 -2.819288e-08 -6.057568e-06)	(-1.745805e-07 2.819288e-08 6.055715e-06)
5.300000e+01	cylinder	(-1.563244e-05 -5.150070e-08 -3.568396e-06)	(-3.557087e-06 5.150070e-08 3.568396e-06)
5.300000e+01	obstacle	(-1.060885e-05 -2.803271e-08 -6.042879e-06)	(-1.667533e-07 2.803271e-08 6.041033e-06)
5.400000e+01	cylinder	(-1.563242e-05 -5.160489e-08 -3.569032e-06)	(-3.526493e-06 5.160489e-08 3.569032e-06)
5.400000e+01	obstacle	(-1.056213e-05 -2.787788e-08 -6.028746e-06)	(-1.591631e-07 2.787788e-08 6.026908e-06)
5.500000e+01	cylinder	(-1.563239e-05 -5.170552e-08 -3.569598e-06)	(-3.496797e-06 5.170552e-08 3.569598e-06)
5.500000e+01	obstacle	(-1.051690e-05 -2.772816e-08 -6.015142e-06)	(-1.517977e-07 2.772816e-08 6.013311e-06)
5.600000e+01	cylinder	(-1.563235e-05 -5.180276e-08 -3.570101e-06)	(-3.467961e-06 5.180276e-08 3.570101e-06)
5.600000e+01	obstacle	(-1.047310e-05 -2.758329e-08 -6.002040e-06)	(-1.446468e-07 2.758329e-08 6.000216e-06)
5.700000e+01	cylinder	(-1.563232e-05 -5.189683e-08 -3.570547e-06)	(-3.439939e-06 5.189683e-08 3.570547e-06)
5.700000e+01	obstacle	(-1.043066e-05 -2.744300e-08 -5.989414e-06)	(-1.377027e-07 2.744300e-08 5.987597e-06)
5.800000e+01	cylinder	(-1.563228e-05 -5.198793e-08 -3.570943e-06)	(-3.412695e-06 5.198793e-08 3.570943e-06)
5.800000e+01	obstacle	(-1.038951e-05 -2.730710e-08 -5.977241e-06)	(-1.309552e-07 2.730710e-08 5.975431e-06)
5.900000e+01	cylinder	(-1.563224e-05 -5.207620e-08 -3.571293e-06)	(-3.386194e-06 5.207620e-08 3.571293e-06)
5.900000e+01	obstacle	(-1.034960e-05 -2.717535e-08 -5.965500e-06)	(-1.243995e-07 2.717535e-08 5.963696e-06)
6.000000e+01	cylinder	(-1.563219e-05 -5.216180e-08 -3.571603e-06)	(-3.360400e-06 5.216180e-08 3.571603e-06)
6.000000e+01	obstacle	(-1.031088e-05 -2.704763e-08 -5.954170e-06)	(-1.180256e-07 2.704763e-08 5.952373e-06)
6.100000e+01	cylinder	(-1.563215e-05 -5.224487e-08 -3.571876e-06)	(-3.335282e-06 5.224487e-08 3.571877e-06)
6.100000e+01	obstacle	(-1.027328e-05 -2.692369e-08 -5.943233e-06)	(-1.118284e-07 2.692369e-08 5.941442e-06)
6.200000e+01	cylinder	(-1.563211e-05 -5.232554e-08 -3.572118e-06)	(-3.310813e-06 5.232554e-08 3.572118e-06)
6.200000e+01	obstacle	(-1.023677e-05 -2.680337e-08 -5.932670e-06)	(-1.058002e-07 2.680337e-08 5.930886e-06)
6.300000e+01	cylinder	(-1.563207e-05 -5.240394e-08 -3.572330e-06)	(-3.286966e-06 5.240394e-08 3.572330e-06)
6.300000e+01	obstacle	(-1.020130e-05 -2.668651e-08 -5.922465e-06)	(-9.993369e-08 2.668651e-08 5.920686e-06)
6.400000e+01	cylinder	(-1.563202e-05 -5.248016e-08 -3.572516e-06)	(-3.263715e-06 5.248016e-08 3.572516e-06)
6.400000e+01	obstacle	(-1.016682e-05 -2.657300e-08 -5.912601e-06)	(-9.422424e-08 2.657300e-08 5.910827e-06)
6.500000e+01	cylinder	(-1.563198e-05 -5.255435e-08 -3.572680e-06)	(-3.241036e-06 5.255435e-08 3.572680e-06)
6.500000e+01	obstacle	(-1.013329e-05 -2.646260e-08 -5.903062e-06)	(-8.866774e-08 2.646260e-08 5.901294e-06)
6.600000e+01	cylinder	(-1.563194e-05 -5.262657e-08 -3.572822e-06)	(-3.218912e-06 5.262657e-08 3.572822e-06)
6.600000e+01	obstacle	(-1.010069e-05 -2.635524e-08 -5.893835e-06)	(-8.325533e-08 2.635524e-08 5.892073e-06)
6.700000e+01	cylinder	(-1.563190e-05 -5.269690e-08 -3.572946e-06)	(-3.197314e-06 5.269690e-08 3.572946e-06)
6.700000e+01	obstacle	(-1.006896e-05 -2.625078e-08 -5.884907e-06)	(-7.798369e-08 2.625078e-08 5.883150e-06)
6.800000e+01	cylinder	(-1.563186e-05 -5.276546e-08 -3.573053e-06)	(-3.176226e-06 5.276546e-08 3.573053e-06)
6.800000e+01	obstacle	(-1.003808e-05 -2.614910e-08 -5.876265e-06)	(-7.284788e-08 2.614910e-08 5.874512e-06)
6.900000e+01	cylinder	(-1.563182e-05 -5.283230e-08 -3.573145e-06)	(-3.155538e-06 5.283230e-08 3.573145e-06)
6.900000e+01	obstacle	(-1.000801e-05 -2.605006e-08 -5.867896e-06)	(-6.784294e-08 2.605006e-08 5.866149e-06)
7.000000e+01	cylinder	(-1.563178e-05 -5.289751e-08 -3.573224e-06)	(-3.134966e-06 5.289751e-08 3.573224e-06)
7.000000e+01	obstacle	(-9.978727e-06 -2.595356e-08 -5.859791e-06)	(-6.296327e-08 2.595356e-08 5.858048e-06)
7.100000e+01	cylinder	(-1.563174e-05 -5.296115e-08 -3.573290e-06)	(-3.114857e-06 5.296115e-08 3.573290e-06)
7.100000e+01	obstacle	(-9.950196e-06 -2.585953e-08 -5.851938e-06)	(-5.820571e-08 2.585953e-08 5.850200e-06)
7.200000e+01	cylinder	(-1.563170e-05 -5.302329e-08 -3.573346e-06)	(-3.095194e-06 5.302329e-08 3.573346e-06)
7.200000e+01	obstacle	(-9.922390e-06 -2.576781e-08 -5.844327e-06)	(-5.356694e-08 2.576781e-08 5.842594e-06)
7.300000e+01	cylinder	(-1.563166e-05 -5.308399e-08 -3.573392e-06)	(-3.075962e-06 5.308399e-08 3.573392e-06)
7.300000e+01	obstacle	(-9.895284e-06 -2.567839e-08 -5.836949e-06)	(-4.904230e-08 2.567839e-08 5.835220e-06)
7.400000e+01	cylinder	(-1.563163e-05 -5.314332e-08 -3.573429e-06)	(-3.057147e-06 5.314332e-08 3.573429e-06)
7.400000e+01	obstacle	(-9.869471e-06 -2.559110e-08 -5.829795e-06)	(-4.462862e-08 2.559110e-08 5.828070e-06)
7.500000e+01	cylinder	(-1.563159e-05 -5.320130e-08 -3.573459e-06)	(-3.038737e-06 5.320130e-08 3.573459e-06)
7.500000e+01	obstacle	(-9.844462e-06 -2.550600e-08 -5.822856e-06)	(-4.032342e-08 2.550600e-08 5.821135e-06)
7.600000e+01	cylinder	(-1.563156e-05 -5.325801e-08 -3.573483e-06)	(-3.020716e-06 5.325801e-08 3.573483e-06)
7.600000e+01	obstacle	(-9.820066e-06 -2.542289e-08 -5.816124e-06)	(-3.612202e-08 2.542289e-08 5.814408e-06)
7.700000e+01	cylinder	(-1.563153e-05 -5.331349e-08 -3.573500e-06)	(-3.003071e-06 5.331349e-08 3.573500e-06)
7.700000e+01	obstacle	(-9.796261e-06 -2.534170e-08 -5.809591e-06)	(-3.202152e-08 2.534170e-08 5.807879e-06)
7.800000e+01	cylinder	(-1.563149e-05 -5.336779e-08 -3.573512e-06)	(-2.985789e-06 5.336779e-08 3.573512e-06)
7.800000e+01	obstacle	(-9.773026e-06 -2.526239e-08 -5.803250e-06)	(-2.801949e-08 2.526239e-08 5.801542e-06)
7.900000e+01	cylinder	(-1.563146e-05 -5.342093e-08 -3.573520e-06)	(-2.968859e-06 5.342093e-08 3.573520e-06)
7.900000e+01	obstacle	(-9.750342e-06 -2.518494e-08 -5.797095e-06)	(-2.411273e-08 2.518494e-08 5.795391e-06)
8.000000e+01	cylinder	(-1.563143e-05 -5.347299e-08 -3.573524e-06)	(-2.952267e-06 5.347299e-08 3.573524e-06)
8.000000e+01	obstacle	(-9.728190e-06 -2.510921e-08 -5.791117e-06)	(-2.029801e-08 2.510921e-08 5.789417e-06)
8.100000e+01	cylinder	(-1.563141e-05 -5.352403e-08 -3.573525e-06)	(-2.936003e-06 5.352403e-08 3.573525e-06)
8.100000e+01	obstacle	(-9.706553e-06 -2.503518e-08 -5.785313e-06)	(-1.657265e-08 2.503518e-08 5.783617e-06)
8.200000e+01	cylinder	(-1.563138e-05 -5.357397e-08 -3.573520e-06)	(-2.920059e-06 5.357397e-08 3.573520e-06)
8.200000e+01	obstacle	(-9.685414e-06 -2.496279e-08 -5.779674e-06)	(-1.293420e-08 2.496279e-08 5.777982e-06)
8.300000e+01	cylinder	(-1.563135e-05 -5.362276e-08 -3.573503e-06)	(-2.904424e-06 5.362276e-08 3.573503e-06)
8.300000e+01	obstacle	(-9.664757e-06 -2.489199e-08 -5.774196e-06)	(-9.380977e-09 2.489199e-08 5.772507e-06)
8.400000e+01	cylinder	(-1.563131e-05 -5.367039e-08 -3.573474e-06)	(-2.889088e-06 5.367039e-08 3.573474e-06)
8.400000e+01	obstacle	(-9.644566e-06 -2.482273e-08 -5.768873e-06)	(-5.909304e-09 2.482273e-08 5.767187e-06)
8.500000e+01	cylinder	(-1.563127e-05 -5.371694e-08 -3.573433e-06)	(-2.874043e-06 5.371694e-08 3.573433e-06)
8.500000e+01	obstacle	(-9.624828e-06 -2.475491e-08 -5.763698e-06)	(-2.517536e-09 2.475491e-08 5.762016e-06)
8.600000e+01	cylinder	(-1.563123e-05 -5.376246e-08 -3.573386e-06)	(-2.859279e-06 5.376246e-08 3.573386e-06)
8.600000e+01	obstacle	(-9.605527e-06 -2.468856e-08 -5.758668e-06)	(7.966306e-10 2.468856e-08 5.756989e-06)
8.700000e+01	cylinder	(-1.563120e-05 -5.380715e-08 -3.573340e-06)	(-2.844789e-06 5.380715e-08 3.573340e-06)
8.700000e+01	obstacle	(-9.586650e-06 -2.462357e-08 -5.753777e-06)	(4.035495e-09 2.462357e-08 5.752101e-06)
8.800000e+01	cylinder	(-1.563117e-05 -5.385113e-08 -3.573290e-06)	(-2.830563e-06 5.385113e-08 3.573290e-06)
8.800000e+01	obstacle	(-9.568185e-06 -2.455991e-08 -5.749021e-06)	(7.200734e-09 2.455991e-08 5.747348e-06)
8.900000e+01	cylinder	(-1.563114e-05 -5.389441e-08 -3.573240e-06)	(-2.816594e-06 5.389441e-08 3.573240e-06)
8.900000e+01	obstacle	(-9.550118e-06 -2.449759e-08 -5.744395e-06)	(1.029401e-08 2.449759e-08 5.742725e-06)
9.000000e+01	cylinder	(-1.563111e-05 -5.393704e-08 -3.573191e-06)	(-2.802874e-06 5.393704e-08 3.573191e-06)
9.000000e+01	obstacle	(-9.532438e-06 -2.443646e-08 -5.739895e-06)	(1.331738e-08 2.443646e-08 5.738228e-06)
9.100000e+01	cylinder	(-1.563109e-05 -5.397899e-08 -3.573143e-06)	(-2.789398e-06 5.397899e-08 3.573143e-06)
9.100000e+01	obstacle	(-9.515134e-06 -2.437658e-08 -5.735517e-06)	(1.627317e-08 2.437658e-08 5.733853e-06)
9.200000e+01	cylinder	(-1.563107e-05 -5.402026e-08 -3.573098e-06)	(-2.776157e-06 5.402026e-08 3.573098e-06)
9.200000e+01	obstacle	(-9.498195e-06 -2.431793e-08 -5.731257e-06)	(1.916284e-08 2.431793e-08 5.729596e-06)
9.300000e+01	cylinder	(-1.563105e-05 -5.406087e-08 -3.573054e-06)	(-2.763145e-06 5.406087e-08 3.573055e-06)
9.300000e+01	obstacle	(-9.481610e-06 -2.426034e-08 -5.727112e-06)	(2.198859e-08 2.426034e-08 5.725454e-06)
9.400000e+01	cylinder	(-1.563104e-05 -5.410072e-08 -3.573013e-06)	(-2.750356e-06 5.410072e-08 3.573013e-06)
9.400000e+01	obstacle	(-9.465369e-06 -2.420392e-08 -5.723078e-06)	(2.475163e-08 2.420392e-08 5.721422e-06)
9.500000e+01	cylinder	(-1.563102e-05 -5.414002e-08 -3.572974e-06)	(-2.737784e-06 5.414002e-08 3.572974e-06)
9.500000e+01	obstacle	(-9.449463e-06 -2.414856e-08 -5.719151e-06)	(2.745360e-08 2.414856e-08 5.717498e-06)
9.600000e+01	cylinder	(-1.563101e-05 -5.417872e-08 -3.572936e-06)	(-2.725423e-06 5.417872e-08 3.572936e-06)
9.600000e+01	obstacle	(-9.433881e-06 -2.409427e-08 -5.715329e-06)	(3.009630e-08 2.409427e-08 5.713678e-06)
9.700000e+01	cylinder	(-1.563099e-05 -5.421836e-08 -3.572900e-06)	(-2.713266e-06 5.421836e-08 3.572900e-06)
9.700000e+01	obstacle	(-9.418616e-06 -2.403904e-08 -5.711608e-06)	(3.268102e-08 2.403904e-08 5.709959e-06)
9.800000e+01	cylinder	(-1.563098e-05 -5.425411e-08 -3.572865e-06)	(-2.701310e-06 5.425411e-08 3.572865e-06)
9.800000e+01	obstacle	(-9.403657e-06 -2.398871e-08 -5.707985e-06)	(3.520891e-08 2.398871e-08 5.706339e-06)
9.900000e+01	cylinder	(-1.563096e-05 -5.429090e-08 -3.572831e-06)	(-2.689549e-06 5.429090e-08 3.572831e-06)
9.900000e+01	obstacle	(-9.388997e-06 -2.393737e-08 -5.704458e-06)	(3.768165e-08 2.393737e-08 5.702813e-06)
1.000000e+02	cylinder	(-1.563095e-05 -5.432709e-08 -3.572799e-06)	(-2.677977e-06 5.432709e-08 3.572799e-06)
1.000000e+02	obstacle	(-9.374628e-06 -2.388697e-08 -5.701022e-06)	(4.010050e-08 2.388697e-08 5.699381e-06)
1.010000e+02	cylinder	(-1.563094e-05 -5.436270e-08 -3.572768e-06)	(-2.666591e-06 5.436270e-08 3.572768e-06)
1.010000e+02	obstacle	(-9.360542e-06 -2.383746e-08 -5.697677e-06)	(4.246714e-08 2.383746e-08 5.696038e-06)
1.020000e+02	cylinder	(-1.563093e-05 -5.439776e-08 -3.572738e-06)	(-2.655385e-06 5.439776e-08 3.572738e-06)
1.020000e+02	obstacle	(-9.346732e-06 -2.378887e-08 -5.694419e-06)	(4.478253e-08 2.378887e-08 5.692782e-06)
1.030000e+02	cylinder	(-1.563092e-05 -5.443226e-08 -3.572710e-06)	(-2.644354e-06 5.443226e-08 3.572710e-06)
1.030000e+02	obstacle	(-9.333190e-06 -2.374113e-08 -5.691247e-06)	(4.704770e-08 2.374113e-08 5.689611e-06)
1.040000e+02	cylinder	(-1.563091e-05 -5.446667e-08 -3.572682e-06)	(-2.633495e-06 5.446667e-08 3.572682e-06)
1.040000e+02	obstacle	(-9.319909e-06 -2.369375e-08 -5.688156e-06)	(4.926431e-08 2.369375e-08 5.686523e-06)
1.050000e+02	cylinder	(-1.563090e-05 -5.450015e-08 -3.572656e-06)	(-2.622800e-06 5.450015e-08 3.572656e-06)
1.050000e+02	obstacle	(-9.306882e-06 -2.364753e-08 -5.685146e-06)	(5.143336e-08 2.364753e-08 5.683515e-06)
1.060000e+02	cylinder	(-1.563089e-05 -5.453317e-08 -3.572630e-06)	(-2.612268e-06 5.453317e-08 3.572630e-06)
1.060000e+02	obstacle	(-9.294103e-06 -2.360215e-08 -5.682214e-06)	(5.355622e-08 2.360215e-08 5.680585e-06)
1.070000e+02	cylinder	(-1.563088e-05 -5.456566e-08 -3.572605e-06)	(-2.601894e-06 5.456566e-08 3.572605e-06)
1.070000e+02	obstacle	(-9.281566e-06 -2.355756e-08 -5.679357e-06)	(5.563385e-08 2.355756e-08 5.677730e-06)
1.080000e+02	cylinder	(-1.563087e-05 -5.459764e-08 -3.572582e-06)	(-2.591675e-06 5.459764e-08 3.572582e-06)
1.080000e+02	obstacle	(-9.269265e-06 -2.351377e-08 -5.676575e-06)	(5.766724e-08 2.351377e-08 5.674949e-06)
1.090000e+02	cylinder	(-1.563086e-05 -5.462913e-08 -3.572559e-06)	(-2.580700e-06 5.462913e-08 3.572559e-06)
1.090000e+02	obstacle	(-9.257372e-06 -2.347079e-08 -5.673863e-06)	(5.965738e-08 2.347079e-08 5.672240e-06)
1.100000e+02	cylinder	(-1.563085e-05 -5.466017e-08 -3.572538e-06)	(-2.569823e-06 5.466017e-08 3.572538e-06)
1.100000e+02	obstacle	(-9.245951e-06 -2.342848e-08 -5.671222e-06)	(6.160569e-08 2.342848e-08 5.669601e-06)
1.110000e+02	cylinder	(-1.563084e-05 -5.469078e-08 -3.572517e-06)	(-2.559101e-06 5.469078e-08 3.572517e-06)
1.110000e+02	obstacle	(-9.234742e-06 -2.338693e-08 -5.668649e-06)	(6.351304e-08 2.338693e-08 5.667029e-06)
1.120000e+02	cylinder	(-1.563084e-05 -5.472089e-08 -3.572497e-06)	(-2.548531e-06 5.472089e-08 3.572497e-06)
1.120000e+02	obstacle	(-9.223740e-06 -2.334605e-08 -5.666142e-06)	(6.538046e-08 2.334605e-08 5.664524e-06)
1.130000e+02	cylinder	(-1.563083e-05 -5.475058e-08 -3.572477e-06)	(-2.538109e-06 5.475058e-08 3.572477e-06)
1.130000e+02	obstacle	(-9.212940e-06 -2.330583e-08 -5.663700e-06)	(6.720876e-08 2.330583e-08 5.662083e-06)
1.140000e+02	cylinder	(-1.563082e-05 -5.477985e-08 -3.572459e-06)	(-2.527831e-06 5.477985e-08 3.572459e-06)
1.140000e+02	obstacle	(-9.202338e-06 -2.326628e-08 -5.661320e-06)	(6.899925e-08 2.326628e-08 5.659705e-06)
1.150000e+02	cylinder	(-1.563082e-05 -5.480871e-08 -3.572441e-06)	(-2.517695e-06 5.480871e-08 3.572441e-06)
1.150000e+02	obstacle	(-9.191928e-06 -2.322735e-08 -5.659001e-06)	(7.075246e-08 2.322735e-08 5.657388e-06)
1.160000e+02	cylinder	(-1.563081e-05 -5.483716e-08 -3.572424e-06)	(-2.507697e-06 5.483716e-08 3.572424e-06)
1.160000e+02	obstacle	(-9.181706e-06 -2.318907e-08 -5.656743e-06)	(7.246973e-08 2.318907e-08 5.655131e-06)
1.170000e+02	cylinder	(-1.563080e-05 -5.486522e-08 -3.572407e-06)	(-2.497834e-06 5.486522e-08 3.572407e-06)
1.170000e+02	obstacle	(-9.171668e-06 -2.315137e-08 -5.654542e-06)	(7.415215e-08 2.315137e-08 5.652932e-06)
1.180000e+02	cylinder	(-1.563080e-05 -5.489290e-08 -3.572392e-06)	(-2.488103e-06 5.489290e-08 3.572392e-06)
1.180000e+02	obstacle	(-9.161809e-06 -2.311426e-08 -5.652398e-06)	(7.580101e-08 2.311426e-08 5.650789e-06)
1.190000e+02	cylinder	(-1.563079e-05 -5.492020e-08 -3.572376e-06)	(-2.478502e-06 5.492020e-08 3.572377e-06)
1.190000e+02	obstacle	(-9.152126e-06 -2.307775e-08 -5.650309e-06)	(7.741758e-08 2.307775e-08 5.648702e-06)
1.200000e+02	cylinder	(-1.563078e-05 -5.494716e-08 -3.572362e-06)	(-2.469026e-06 5.494716e-08 3.572362e-06)
1.200000e+02	obstacle	(-9.142615e-06 -2.304179e-08 -5.648274e-06)	(7.900373e-08 2.304179e-08 5.646668e-06)
1.210000e+02	cylinder	(-1.563078e-05 -5.497371e-08 -3.572348e-06)	(-2.459674e-06 5.497371e-08 3.572348e-06)
1.210000e+02	obstacle	(-9.133271e-06 -2.300639e-08 -5.646292e-06)	(8.056197e-08 2.300639e-08 5.644688e-06)
1.220000e+02	cylinder	(-1.563077e-05 -5.499995e-08 -3.572335e-06)	(-2.450443e-06 5.499995e-08 3.572335e-06)
1.220000e+02	obstacle	(-9.124090e-06 -2.297154e-08 -5.644362e-06)	(8.209649e-08 2.297154e-08 5.642759e-06)
1.230000e+02	cylinder	(-1.563077e-05 -5.502580e-08 -3.572322e-06)	(-2.441331e-06 5.502580e-08 3.572322e-06)
1.230000e+02	obstacle	(-9.115070e-06 -2.293722e-08 -5.642481e-06)	(8.361355e-08 2.293722e-08 5.640880e-06)
1.240000e+02	cylinder	(-1.563076e-05 -5.505134e-08 -3.572309e-06)	(-2.432334e-06 5.505134e-08 3.572309e-06)
1.240000e+02	obstacle	(-9.106206e-06 -2.290344e-08 -5.640650e-06)	(8.512164e-08 2.290344e-08 5.639050e-06)
1.250000e+02	cylinder	(-1.563076e-05 -5.507655e-08 -3.572298e-06)	(-2.423450e-06 5.507655e-08 3.572298e-06)
1.250000e+02	obstacle	(-9.097496e-06 -2.287014e-08 -5.638867e-06)	(8.657171e-08 2.287014e-08 5.637268e-06)
1.260000e+02	cylinder	(-1.563076e-05 -5.510142e-08 -3.572286e-06)	(-2.414677e-06 5.510142e-08 3.572286e-06)
1.260000e+02	obstacle	(-9.088935e-06 -2.283736e-08 -5.637130e-06)	(8.791461e-08 2.283736e-08 5.635533e-06)
1.270000e+02	cylinder	(-1.563075e-05 -5.512599e-08 -3.572275e-06)	(-2.406013e-06 5.512599e-08 3.572275e-06)
1.270000e+02	obstacle	(-9.080521e-06 -2.280505e-08 -5.635439e-06)	(8.929991e-08 2.280505e-08 5.633843e-06)
1.280000e+02	cylinder	(-1.563075e-05 -5.515023e-08 -3.572265e-06)	(-2.397456e-06 5.515023e-08 3.572265e-06)
1.280000e+02	obstacle	(-9.072251e-06 -2.277322e-08 -5.633793e-06)	(9.059635e-08 2.277322e-08 5.632198e-06)
1.290000e+02	cylinder	(-1.563074e-05 -5.517419e-08 -3.572255e-06)	(-2.389003e-06 5.517419e-08 3.572255e-06)
1.290000e+02	obstacle	(-9.064121e-06 -2.274186e-08 -5.632189e-06)	(9.182948e-08 2.274186e-08 5.630596e-06)
1.300000e+02	cylinder	(-1.563074e-05 -5.519782e-08 -3.572246e-06)	(-2.380652e-06 5.519782e-08 3.572246e-06)
1.300000e+02	obstacle	(-9.056128e-06 -2.271095e-08 -5.630629e-06)	(9.307489e-08 2.271095e-08 5.629036e-06)
1.310000e+02	cylinder	(-1.563074e-05 -5.522116e-08 -3.572237e-06)	(-2.372402e-06 5.522116e-08 3.572237e-06)
1.310000e+02	obstacle	(-9.048270e-06 -2.268052e-08 -5.629110e-06)	(9.432430e-08 2.268052e-08 5.627518e-06)
1.320000e+02	cylinder	(-1.563073e-05 -5.524421e-08 -3.572229e-06)	(-2.364249e-06 5.524421e-08 3.572229e-06)
1.320000e+02	obstacle	(-9.040544e-06 -2.265052e-08 -5.627632e-06)	(9.558247e-08 2.265052e-08 5.626041e-06)
1.330000e+02	cylinder	(-1.563073e-05 -5.526698e-08 -3.572221e-06)	(-2.356193e-06 5.526698e-08 3.572221e-06)
1.330000e+02	obstacle	(-9.032947e-06 -2.262094e-08 -5.626193e-06)	(9.668867e-08 2.262094e-08 5.624603e-06)
1.340000e+02	cylinder	(-1.563073e-05 -5.528949e-08 -3.572213e-06)	(-2.348217e-06 5.528949e-08 3.572213e-06)
1.340000e+02	obstacle	(-9.025476e-06 -2.259177e-08 -5.624793e-06)	(9.781451e-08 2.259177e-08 5.623204e-06)
1.350000e+02	cylinder	(-1.563072e-05 -5.531175e-08 -3.572206e-06)	(-2.340256e-06 5.531175e-08 3.572206e-06)
1.350000e+02	obstacle	(-9.018130e-06 -2.256297e-08 -5.623431e-06)	(9.893544e-08 2.256297e-08 5.621843e-06)
1.360000e+02	cylinder	(-1.563072e-05 -5.533373e-08 -3.572199e-06)	(-2.332386e-06 5.533373e-08 3.572199e-06)
1.360000e+02	obstacle	(-9.010905e-06 -2.253461e-08 -5.622106e-06)	(1.000406e-07 2.253461e-08 5.620519e-06)
1.370000e+02	cylinder	(-1.563072e-05 -5.535544e-08 -3.572193e-06)	(-2.324606e-06 5.535544e-08 3.572193e-06)
1.370000e+02	obstacle	(-9.003799e-06 -2.250664e-08 -5.620818e-06)	(1.011360e-07 2.250664e-08 5.619231e-06)
1.380000e+02	cylinder	(-1.563071e-05 -5.537691e-08 -3.572187e-06)	(-2.316914e-06 5.537691e-08 3.572187e-06)