# Forces      
# CofR        : (0.000000e+00 0.000000e+00 0.000000e+00)
# Time        forces(pressure viscous)	moments(pressure viscous)
0             	((2.301243e-12 -1.306927e-12 -4.686413e-13) (0.000000e+00 0.000000e+00 0.000000e+00)) ((-4.230505e-13 3.257730e-01 -6.625776e-15) (0.000000e+00 0.000000e+00 0.000000e+00))
1             	((-3.457408e+02 2.066030e-01 -4.381732e-13) (5.668190e+00 -8.926147e-04 -1.583008e+00)) ((9.673877e-02 9.224396e+01 -7.811633e-15) (4.189710e-04 -5.582570e+00 6.420622e-06))
1.00568       	((-2.426403e+02 -4.594357e-02 -4.393829e-13) (5.717695e+00 -8.425976e-04 -1.187161e+00)) ((-2.097143e-02 6.064487e+01 -1.740105e-14) (4.080029e-04 -5.662544e+00 4.806584e-06))
1.01214       	((-6.924004e+01 -8.786538e+00 -4.151595e-13) (7.309218e+00 -1.513248e-01 -1.317354e+00)) ((-5.718051e+00 1.867487e+01 -7.758991e-04) (2.557164e-01 -7.997889e+00 -1.136921e-01))
1.01601       	((-2.635684e+02 -7.032328e+00 -4.009735e-13) (7.125580e+00 -1.429903e-01 -1.177202e+00)) ((-2.789488e+00 6.818611e+01 -1.128654e-04) (2.005246e-01 -7.811237e+00 -1.072611e-01))
1.02022       	((-2.631304e+02 2.214829e+00 -4.014087e-13) (6.985348e+00 -1.452013e-01 -1.029818e+00)) ((1.051685e+00 6.719923e+01 -7.336212e-04) (1.502380e-01 -7.642946e+00 -1.032048e-01))
1.02459       	((-2.586322e+02 5.649199e+00 -4.024620e-13) (6.872567e+00 -1.494268e-01 -8.563166e-01)) ((2.515028e+00 6.566834e+01 -9.065198e-04) (1.045201e-01 -7.501286e+00 -9.726298e-02))
1.02854       	((-2.566940e+02 2.282065e+00 -4.028695e-13) (6.791431e+00 -1.450668e-01 -6.998561e-01)) ((9.949239e-01 6.573049e+01 -9.468418e-04) (6.651754e-02 -7.394103e+00 -9.160888e-02))
1.03222       	((-2.526911e+02 1.368476e+00 -4.030817e-13) (6.731886e+00 -1.395845e-01 -5.696582e-01)) ((5.450734e-01 6.493824e+01 -9.971784e-04) (3.387824e-02 -7.309820e+00 -8.633357e-02))
1.0358        	((-2.461939e+02 1.706637e+00 -4.033718e-13) (6.686577e+00 -1.322323e-01 -4.608398e-01)) ((6.719785e-01 6.308996e+01 -1.032697e-03) (5.151165e-03 -7.240350e+00 -8.115346e-02))
1.03922       	((-2.403479e+02 1.214167e-01 -4.035469e-13) (6.652551e+00 -1.231580e-01 -3.739563e-01)) ((-5.530581e-02 6.158540e+01 -1.077462e-03) (-2.034594e-02 -7.183302e+00 -7.602292e-02))
1.04257       	((-2.322539e+02 2.871002e+00 -4.042802e-13) (6.626289e+00 -1.159161e-01 -2.940607e-01)) ((1.182890e+00 5.892844e+01 -9.976616e-04) (-4.211960e-02 -7.135985e+00 -7.150351e-02))
1.04591       	((-2.292748e+02 1.432549e+00 -4.046287e-13) (6.602267e+00 -1.081361e-01 -2.249489e-01)) ((5.612563e-01 5.867277e+01 -8.986043e-04) (-6.193618e-02 -7.095012e+00 -6.733808e-02))
1.0493        	((-2.233786e+02 1.021404e+00 -4.050295e-13) (6.585377e+00 -1.005050e-01 -1.644649e-01)) ((3.770497e-01 5.716340e+01 -7.878469e-04) (-8.014129e-02 -7.058515e+00 -6.351486e-02))
1.05282       	((-2.171457e+02 1.104844e+00 -4.054856e-13) (6.572213e+00 -9.354616e-02 -1.103513e-01)) ((4.238534e-01 5.555294e+01 -6.751750e-04) (-9.697860e-02 -7.025528e+00 -5.990105e-02))
1.05644       	((-2.110480e+02 9.104862e-01 -4.059417e-13) (6.562300e+00 -8.756566e-02 -6.385951e-02)) ((3.342291e-01 5.406591e+01 -5.886062e-04) (-1.122303e-01 -6.995459e+00 -5.676764e-02))
1.06017       	((-2.039563e+02 1.113288e+00 -4.065200e-13) (6.553567e+00 -8.269802e-02 -2.152512e-02)) ((4.151964e-01 5.218472e+01 -5.477179e-04) (-1.258573e-01 -6.967827e+00 -5.412820e-02))
1.06404       	((-1.970819e+02 1.138792e+00 -4.070903e-13) (6.546019e+00 -7.847458e-02 1.682867e-02)) ((4.114661e-01 5.049803e+01 -4.834127e-04) (-1.380667e-01 -6.941587e+00 -5.196920e-02))
1.06805       	((-1.898317e+02 2.257663e-01 -4.075676e-13) (6.539395e+00 -7.446727e-02 4.828001e-02)) ((-3.874076e-02 4.873404e+01 -4.013966e-04) (-1.493431e-01 -6.915690e+00 -5.016187e-02))
1.07223       	((-1.811831e+02 2.245532e+00 -4.083603e-13) (6.532314e+00 -7.292647e-02 7.817936e-02)) ((8.518637e-01 4.637186e+01 -3.165689e-04) (-1.588537e-01 -6.890075e+00 -4.885669e-02))
1.07659       	((-1.738512e+02 8.322344e-01 -4.088316e-13) (6.524594e+00 -7.117371e-02 9.965419e-02)) ((1.543562e-01 4.477282e+01 -2.157750e-04) (-1.675238e-01 -6.863000e+00 -4.795040e-02))
1.08086       	((-1.648044e+02 2.508377e+00 -4.096019e-13) (6.513831e+00 -7.137061e-02 1.167791e-01)) ((8.690405e-01 4.230774e+01 -1.790908e-04) (-1.741641e-01 -6.836049e+00 -4.753915e-02))
1.08504       	((-1.574067e+02 1.347044e+00 -4.100437e-13) (6.501576e+00 -7.150763e-02 1.245902e-01)) ((3.056721e-01 4.061679e+01 -1.284445e-04) (-1.798774e-01 -6.807709e+00 -4.726065e-02))
1.0892        	((-1.488418e+02 2.470177e+00 -4.107428e-13) (6.486402e+00 -7.281558e-02 1.294418e-01)) ((8.035395e-01 3.835847e+01 -6.011315e-05) (-1.843911e-01 -6.777879e+00 -4.732846e-02))
1.09338       	((-1.411983e+02 2.014560e+00 -4.112322e-13) (6.468537e+00 -7.407777e-02 1.267382e-01)) ((5.882285e-01 3.657046e+01 4.835866e-06) (-1.882271e-01 -6.745527e+00 -4.769733e-02))
1.09761       	((-1.328079e+02 1.443813e+00 -4.116980e-13) (6.447715e+00 -7.521299e-02 1.174800e-01)) ((3.228710e-01 3.447358e+01 2.796710e-05) (-1.915590e-01 -6.709718e+00 -4.826310e-02))
1.10193       	((-1.240497e+02 2.325312e+00 -4.122872e-13) (6.423374e+00 -7.676463e-02 1.047121e-01)) ((7.165330e-01 3.223985e+01 8.547267e-05) (-1.940627e-01 -6.670249e+00 -4.920322e-02))
1.10636       	((-1.154769e+02 1.427287e+00 -4.127057e-13) (6.394897e+00 -7.764553e-02 8.471570e-02)) ((3.220278e-01 3.018351e+01 1.621204e-04) (-1.965211e-01 -6.626162e+00 -5.034060e-02))
1.11089       	((-1.062389e+02 2.034511e+00 -4.132385e-13) (6.361848e+00 -7.869774e-02 6.104387e-02)) ((5.981423e-01 2.785485e+01 2.149732e-04) (-1.984594e-01 -6.576988e+00 -5.181621e-02))
1.1155        	((-9.721979e+01 1.502624e+00 -4.136237e-13) (6.325169e+00 -8.020927e-02 3.121541e-02)) ((3.454430e-01 2.568231e+01 2.459762e-04) (-2.001229e-01 -6.522612e+00 -5.354080e-02))
1.12015       	((-8.767160e+01 1.883393e+00 -4.140904e-13) (6.284806e+00 -8.187160e-02 -2.385211e-03)) ((5.250086e-01 2.327616e+01 2.516119e-04) (-2.012811e-01 -6.463123e+00 -5.554236e-02))
1.12494       	((-7.812656e+01 1.365202e+00 -4.144618e-13) (6.240635e+00 -8.347007e-02 -4.001536e-02)) ((2.944984e-01 2.097753e+01 2.556699e-04) (-2.026038e-01 -6.396930e+00 -5.762918e-02))
1.12982       	((-6.781433e+01 1.839036e+00 -4.149315e-13) (6.192983e+00 -8.552519e-02 -7.968801e-02)) ((4.946715e-01 1.836186e+01 1.713368e-04) (-2.035457e-01 -6.324138e+00 -5.990728e-02))
1.13485       	((-5.761917e+01 1.395933e+00 -4.153194e-13) (6.140196e+00 -8.799005e-02 -1.225977e-01)) ((2.864652e-01 1.591418e+01 1.529550e-04) (-2.050174e-01 -6.243497e+00 -6.210909e-02))
1.14          	((-4.648061e+01 1.837900e+00 -4.158398e-13) (6.082535e+00 -9.068524e-02 -1.666026e-01)) ((4.803007e-01 1.309242e+01 1.122328e-04) (-2.065241e-01 -6.155208e+00 -6.414749e-02))
1.14522       	((-3.554423e+01 1.462256e+00 -4.162960e-13) (6.020737e+00 -9.304555e-02 -2.121786e-01)) ((2.899603e-01 1.044626e+01 3.963806e-05) (-2.082752e-01 -6.059665e+00 -6.595271e-02))
1.15043       	((-2.396499e+01 1.792790e+00 -4.168754e-13) (5.954010e+00 -9.621796e-02 -2.563278e-01)) ((4.426950e-01 7.520281e+00 -4.086622e-06) (-2.099188e-01 -5.958011e+00 -6.763076e-02))
1.15549       	((-1.301717e+01 1.377298e+00 -4.173398e-13) (5.884530e+00 -9.939539e-02 -2.977430e-01)) ((2.526107e-01 4.869274e+00 -7.071734e-06) (-2.114987e-01 -5.853112e+00 -6.913883e-02))
1.16045       	((-1.779959e+00 1.677370e+00 -4.178355e-13) (5.811424e+00 -1.025523e-01 -3.350126e-01)) ((3.905592e-01 2.056216e+00 -4.197271e-05) (-2.129241e-01 -5.744514e+00 -7.046575e-02))
1.16536       	((9.098170e+00 1.226102e+00 -4.181995e-13) (5.733019e+00 -1.051800e-01 -3.696151e-01)) ((1.873667e-01 -5.671399e-01 -5.708951e-05) (-2.144383e-01 -5.631328e+00 -7.164352e-02))
1.17024       	((2.070599e+01 1.896747e+00 -4.186289e-13) (5.646562e+00 -1.075533e-01 -4.016526e-01)) ((4.891203e-01 -3.485777e+00 4.041642e-05) (-2.156507e-01 -5.514145e+00 -7.273344e-02))
1.1751        	((3.132461e+01 1.291378e+00 -4.189595e-13) (5.552898e+00 -1.090871e-01 -4.319953e-01)) ((2.172006e-01 -5.987826e+00 1.077023e-04) (-2.170194e-01 -5.392514e+00 -7.361266e-02))
1.17986       	((4.260329e+01 1.771138e+00 -4.193731e-13) (5.452642e+00 -1.103872e-01 -4.597263e-01)) ((4.318198e-01 -8.794256e+00 1.760742e-05) (-2.181085e-01 -5.268648e+00 -7.438571e-02))
1.1845        	((5.286754e+01 1.465669e+00 -4.196468e-13) (5.351559e+00 -1.119114e-01 -4.850636e-01)) ((2.929598e-01 -1.124380e+01 -4.807372e-05) (-2.192406e-01 -5.144163e+00 -7.487346e-02))
1.18895       	((6.313526e+01 1.765867e+00 -4.199087e-13) (5.250268e+00 -1.131504e-01 -5.070670e-01)) ((4.292369e-01 -1.379001e+01 -1.329770e-04) (-2.200957e-01 -5.020870e+00 -7.505837e-02))
1.19327       	((7.254058e+01 1.620862e+00 -4.200691e-13) (5.148251e+00 -1.145717e-01 -5.269447e-01)) ((3.583491e-01 -1.603790e+01 -2.403445e-04) (-2.208658e-01 -4.898194e+00 -7.507967e-02))
1.19745       	((8.199572e+01 1.711267e+00 -4.202319e-13) (5.046513e+00 -1.157095e-01 -5.437618e-01)) ((4.063367e-01 -1.837083e+01 -3.461598e-04) (-2.214011e-01 -4.776544e+00 -7.476821e-02))
1.2015        	((9.074302e+01 1.746353e+00 -4.203696e-13) (4.946199e+00 -1.165615e-01 -5.587033e-01)) ((4.286332e-01 -2.046584e+01 -4.001787e-04) (-2.219190e-01 -4.655947e+00 -7.435369e-02))
1.20545       	((9.927142e+01 1.595169e+00 -4.204751e-13) (4.846242e+00 -1.167117e-01 -5.713590e-01)) ((3.713598e-01 -2.255101e+01 -4.507709e-04) (-2.223118e-01 -4.536026e+00 -7.383897e-02))
1.20931       	((1.075437e+02 1.766078e+00 -4.205806e-13) (4.747796e+00 -1.171401e-01 -5.822597e-01)) ((4.422499e-01 -2.454763e+01 -5.260899e-04) (-2.223648e-01 -4.416732e+00 -7.328569e-02))
1.21306       	((1.154192e+02 1.689733e+00 -4.206679e-13) (4.650816e+00 -1.167378e-01 -5.912024e-01)) ((4.042385e-01 -2.646150e+01 -6.132003e-04) (-2.225082e-01 -4.298836e+00 -7.276473e-02))
1.21679       	((1.231469e+02 1.764487e+00 -4.206692e-13) (4.553339e+00 -1.162686e-01 -5.988706e-01)) ((4.383154e-01 -2.832402e+01 -6.690870e-04) (-2.225631e-01 -4.179764e+00 -7.228120e-02))
1.22052       	((1.309783e+02 1.672913e+00 -4.207151e-13) (4.454322e+00 -1.158307e-01 -6.047314e-01)) ((3.869977e-01 -3.023493e+01 -7.059086e-04) (-2.226624e-01 -4.059332e+00 -7.181539e-02))
1.22427       	((1.385081e+02 1.921524e+00 -4.207107e-13) (4.353446e+00 -1.150195e-01 -6.102580e-01)) ((4.931666e-01 -3.204512e+01 -7.623093e-04) (-2.226151e-01 -3.936191e+00 -7.127105e-02))
1.22768       	((1.452984e+02 1.793275e+00 -4.207246e-13) (4.260212e+00 -1.138863e-01 -6.145533e-01)) ((4.192370e-01 -3.368926e+01 -8.277868e-04) (-2.225181e-01 -3.821498e+00 -7.072857e-02))
1.23069       	((1.510501e+02 1.813990e+00 -4.206760e-13) (4.177411e+00 -1.130437e-01 -6.185141e-01)) ((4.316587e-01 -3.503334e+01 -8.585143e-04) (-2.223363e-01 -3.718579e+00 -7.027405e-02))
1.23331       	((1.562574e+02 1.824770e+00 -4.206395e-13) (4.104191e+00 -1.125393e-01 -6.219494e-01)) ((4.268454e-01 -3.629768e+01 -8.900480e-04) (-2.220972e-01 -3.627129e+00 -6.986907e-02))
1.23533       	((1.600199e+02 1.868630e+00 -4.205510e-13) (4.046839e+00 -1.122303e-01 -6.246925e-01)) ((4.497184e-01 -3.716150e+01 -9.110885e-04) (-2.219394e-01 -3.555697e+00 -6.956816e-02))
1.23711       	((1.635726e+02 1.673735e+00 -4.205634e-13) (3.995540e+00 -1.117848e-01 -6.264288e-01)) ((3.581124e-01 -3.802198e+01 -9.039911e-04) (-2.217664e-01 -3.491943e+00 -6.930264e-02))
1.23893       	((1.667908e+02 1.693864e+00 -4.205502e-13) (3.943312e+00 -1.114308e-01 -6.281479e-01)) ((3.649983e-01 -3.877330e+01 -9.340457e-04) (-2.215828e-01 -3.426527e+00 -6.906987e-02))
1.24095       	((1.707354e+02 1.652218e+00 -4.205289e-13) (3.885644e+00 -1.112217e-01 -6.300481e-01)) ((3.445413e-01 -3.977782e+01 -9.843345e-04) (-2.212922e-01 -3.353457e+00 -6.888928e-02))
1.24319       	((1.747836e+02 1.828956e+00 -4.204707e-13) (3.820289e+00 -1.112462e-01 -6.327445e-01)) ((4.199735e-01 -4.075315e+01 -9.080815e-04) (-2.208197e-01 -3.271911e+00 -6.874195e-02))
1.24554       	((1.793448e+02 1.876993e+00 -4.204105e-13) (3.749988e+00 -1.112460e-01 -6.354027e-01)) ((4.309160e-01 -4.188405e+01 -8.180751e-04) (-2.201533e-01 -3.186405e+00 -6.865794e-02))
1.2479        	((1.835475e+02 1.942955e+00 -4.203175e-13) (3.678102e+00 -1.110504e-01 -6.384406e-01)) ((4.650879e-01 -4.287591e+01 -8.177366e-04) (-2.193448e-01 -3.099669e+00 -6.856246e-02))
1.25053       	((1.885271e+02 1.826386e+00 -4.202580e-13) (3.596784e+00 -1.110255e-01 -6.417516e-01)) ((4.099989e-01 -4.412079e+01 -9.064260e-04) (-2.184520e-01 -3.003044e+00 -6.854034e-02))
1.25294       	((1.925968e+02 1.980387e+00 -4.201235e-13) (3.522136e+00 -1.112539e-01 -6.450510e-01)) ((4.795177e-01 -4.507013e+01 -9.220485e-04) (-2.176715e-01 -2.913665e+00 -6.859337e-02))
1.25528       	((1.968237e+02 1.863574e+00 -4.200139e-13) (3.449385e+00 -1.112116e-01 -6.479769e-01)) ((4.235752e-01 -4.612989e+01 -9.687685e-04) (-2.168215e-01 -2.826503e+00 -6.859350e-02))
1.25786       	((2.011589e+02 1.869864e+00 -4.199057e-13) (3.368138e+00 -1.112683e-01 -6.510302e-01)) ((4.369761e-01 -4.716479e+01 -1.013593e-03) (-2.157197e-01 -2.729674e+00 -6.861221e-02))
1.26045       	((2.057639e+02 1.719290e+00 -4.197201e-13) (3.286534e+00 -1.112427e-01 -6.545694e-01)) ((3.801131e-01 -4.834305e+01 -1.075348e-03) (-2.146366e-01 -2.632298e+00 -6.874617e-02))
1.26303       	((2.099085e+02 1.843643e+00 -4.195634e-13) (3.204301e+00 -1.113796e-01 -6.586414e-01)) ((4.527155e-01 -4.932106e+01 -1.096069e-03) (-2.134270e-01 -2.534530e+00 -6.887166e-02))
1.2659        	((2.149922e+02 1.589625e+00 -4.194137e-13) (3.111836e+00 -1.114118e-01 -6.626955e-01)) ((3.455354e-01 -5.064536e+01 -1.163955e-03) (-2.121644e-01 -2.425220e+00 -6.913248e-02))
1.26912       	((2.201604e+02 1.744597e+00 -4.192734e-13) (3.007619e+00 -1.117134e-01 -6.670811e-01)) ((4.247769e-01 -5.189510e+01 -1.198190e-03) (-2.106888e-01 -2.302761e+00 -6.950441e-02))
1.27262       	((2.259835e+02 1.637889e+00 -4.191526e-13) (2.893934e+00 -1.121997e-01 -6.723023e-01)) ((3.879586e-01 -5.338320e+01 -1.223602e-03) (-2.089951e-01 -2.169277e+00 -6.994246e-02))
1.27613       	((2.314140e+02 1.650984e+00 -4.190412e-13) (2.778584e+00 -1.126476e-01 -6.782130e-01)) ((4.138186e-01 -5.473659e+01 -1.267571e-03) (-2.074045e-01 -2.034028e+00 -7.031370e-02))
1.2797        	((2.371193e+02 1.305201e+00 -4.189277e-13) (2.660494e+00 -1.127862e-01 -6.853920e-01)) ((2.751145e-01 -5.621740e+01 -1.292772e-03) (-2.057973e-01 -1.895639e+00 -7.064245e-02))
1.28334       	((2.423121e+02 1.573347e+00 -4.188925e-13) (2.540025e+00 -1.129063e-01 -6.946577e-01)) ((4.059257e-01 -5.746370e+01 -1.312287e-03) (-2.041926e-01 -1.753063e+00 -7.092393e-02))
1.28709       	((2.480927e+02 1.256843e+00 -4.188297e-13) (2.415066e+00 -1.128000e-01 -7.060638e-01)) ((2.750883e-01 -5.902468e+01 -1.342005e-03) (-2.026096e-01 -1.604851e+00 -7.114149e-02))
1.2909        	((2.531789e+02 1.339454e+00 -4.188407e-13) (2.287939e+00 -1.123862e-01 -7.197902e-01)) ((3.357380e-01 -6.025479e+01 -1.355303e-03) (-2.010758e-01 -1.452929e+00 -7.115605e-02))
1.29474       	((2.587761e+02 1.164879e+00 -4.188492e-13) (2.160067e+00 -1.118058e-01 -7.359622e-01)) ((2.571861e-01 -6.178693e+01 -1.408247e-03) (-1.998188e-01 -1.299028e+00 -7.090297e-02))
1.29861       	((2.636178e+02 1.269603e+00 -4.189257e-13) (2.030856e+00 -1.109878e-01 -7.545309e-01)) ((3.186624e-01 -6.296837e+01 -1.466239e-03) (-1.987335e-01 -1.142257e+00 -7.031154e-02))
1.30257       	((2.692299e+02 1.041109e+00 -4.189235e-13) (1.898751e+00 -1.089872e-01 -7.748964e-01)) ((2.141570e-01 -6.454650e+01 -1.531125e-03) (-1.978709e-01 -9.809775e-01 -6.944028e-02))
1.30654       	((2.738809e+02 1.258175e+00 -4.190316e-13) (1.767446e+00 -1.068125e-01 -7.971777e-01)) ((3.104581e-01 -6.568609e+01 -1.573572e-03) (-1.970738e-01 -8.180937e-01 -6.815606e-02))
1.31043       	((2.789430e+02 1.100814e+00 -4.190641e-13) (1.637642e+00 -1.043396e-01 -8.203036e-01)) ((2.240990e-01 -6.711415e+01 -1.544190e-03) (-1.967330e-01 -6.568497e-01 -6.663779e-02))
1.31422       	((2.831821e+02 1.256844e+00 -4.191579e-13) (1.511203e+00 -1.011489e-01 -8.442922e-01)) ((3.032382e-01 -6.818409e+01 -1.495420e-03) (-1.963213e-01 -4.988971e-01 -6.487361e-02))
1.31789       	((2.877322e+02 1.085256e+00 -4.192766e-13) (1.386212e+00 -9.783358e-02 -8.690830e-01)) ((2.186181e-01 -6.942852e+01 -1.457916e-03) (-1.958952e-01 -3.454791e-01 -6.300719e-02))
1.3213        	((2.913301e+02 1.198424e+00 -4.193795e-13) (1.264589e+00 -9.436310e-02 -8.942384e-01)) ((2.678703e-01 -7.034702e+01 -1.452766e-03) (-1.957108e-01 -2.025575e-01 -6.099201e-02))
1.32476       	((2.954886e+02 1.122176e+00 -4.194639e-13) (1.139161e+00 -9.044356e-02 -9.200433e-01)) ((2.111434e-01 -7.150524e+01 -1.504243e-03) (-1.955235e-01 -5.778183e-02 -5.882390e-02))
1.32815       	((2.988102e+02 1.221624e+00 -4.195172e-13) (1.016899e+00 -8.641700e-02 -9.469068e-01)) ((2.535729e-01 -7.238103e+01 -1.525203e-03) (-1.951593e-01 8.435057e-02 -5.665211e-02))
1.3315        	((3.023245e+02 1.195992e+00 -4.195359e-13) (8.951300e-01 -8.235751e-02 -9.744287e-01)) ((2.241068e-01 -7.337226e+01 -1.578767e-03) (-1.947929e-01 2.245843e-01 -5.457281e-02))
1.33482       	((3.054032e+02 1.225296e+00 -4.195066e-13) (7.737991e-01 -7.815967e-02 -1.003107e+00)) ((2.335789e-01 -7.421365e+01 -1.614176e-03) (-1.942888e-01 3.642002e-01 -5.243362e-02))
1.33813       	((3.087793e+02 1.153052e+00 -4.194426e-13) (6.523622e-01 -7.413466e-02 -1.032433e+00)) ((1.936033e-01 -7.520139e+01 -1.625273e-03) (-1.935923e-01 5.031129e-01 -5.040270e-02))
1.34107       	((3.108195e+02 1.219527e+00 -4.193510e-13) (5.443058e-01 -7.051894e-02 -1.059494e+00)) ((2.346843e-01 -7.572467e+01 -1.618098e-03) (-1.930208e-01 6.270708e-01 -4.872424e-02))
1.34362       	((3.129049e+02 1.058030e+00 -4.192922e-13) (4.507526e-01 -6.713644e-02 -1.083536e+00)) ((1.627236e-01 -7.632559e+01 -1.617485e-03) (-1.924612e-01 7.344740e-01 -4.727867e-02))
1.34598       	((3.146180e+02 1.044787e+00 -4.192057e-13) (3.639673e-01 -6.417648e-02 -1.106526e+00)) ((1.682517e-01 -7.681833e+01 -1.625151e-03) (-1.919380e-01 8.341034e-01 -4.590810e-02))
1.34823       	((3.164701e+02 9.490673e-01 -4.191125e-13) (2.812852e-01 -6.146516e-02 -1.128852e+00)) ((1.248151e-01 -7.737795e+01 -1.646072e-03) (-1.915535e-01 9.288625e-01 -4.474287e-02))
1.35016       	((3.174495e+02 1.006725e+00 -4.190620e-13) (2.105396e-01 -5.919336e-02 -1.148376e+00)) ((1.597095e-01 -7.765010e+01 -1.693717e-03) (-1.911958e-01 1.010243e+00 -4.382041e-02))
1.35191       	((3.188562e+02 8.888838e-01 -4.190158e-13) (1.463990e-01 -5.710670e-02 -1.166319e+00)) ((1.019611e-01 -7.808005e+01 -1.740827e-03) (-1.908841e-01 1.084355e+00 -4.306333e-02))
1.35349       	((3.195940e+02 9.757796e-01 -4.189981e-13) (8.887383e-02 -5.535245e-02 -1.182740e+00)) ((1.340194e-01 -7.830970e+01 -1.788832e-03) (-1.905908e-01 1.150900e+00 -4.242428e-02))
1.35485       	((3.203961e+02 8.832768e-01 -4.189635e-13) (3.907364e-02 -5.391450e-02 -1.196836e+00)) ((9.697284e-02 -7.854981e+01 -1.829494e-03) (-1.902818e-01 1.208172e+00 -4.184354e-02))
1.35615       	((3.213695e+02 9.677334e-01 -4.189444e-13) (-8.181413e-03 -5.265269e-02 -1.210396e+00)) ((1.273271e-01 -7.884945e+01 -1.850519e-03) (-1.899749e-01 1.262748e+00 -4.132395e-02))
1.35753       	((3.226998e+02 9.328542e-01 -4.189286e-13) (-5.813441e-02 -5.131161e-02 -1.224802e+00)) ((1.059082e-01 -7.928045e+01 -1.861762e-03) (-1.896692e-01 1.320771e+00 -4.078639e-02))
1.35899       	((3.236632e+02 1.011364e+00 -4.189184e-13) (-1.104840e-01 -4.984092e-02 -1.240090e+00)) ((1.349730e-01 -7.958203e+01 -1.867283e-03) (-1.894097e-01 1.381629e+00 -4.027617e-02))
1.36032       	((3.242886e+02 1.005459e+00 -4.189190e-13) (-1.580583e-01 -4.856830e-02 -1.253993e+00)) ((1.311135e-01 -7.978867e+01 -1.889988e-03) (-1.892312e-01 1.436937e+00 -3.989828e-02))
1.36168       	((3.253989e+02 1.058852e+00 -4.189098e-13) (-2.066164e-01 -4.747713e-02 -1.268327e+00)) ((1.494153e-01 -8.013461e+01 -1.878855e-03) (-1.889783e-01 1.493782e+00 -3.952676e-02))
1.36306       	((3.263839e+02 1.002832e+00 -4.189210e-13) (-2.553886e-01 -4.637405e-02 -1.282859e+00)) ((1.249394e-01 -8.046147e+01 -1.856557e-03) (-1.887152e-01 1.550998e+00 -3.919962e-02))
1.36451       	((3.273582e+02 1.088946e+00 -4.189559e-13) (-3.062526e-01 -4.522100e-02 -1.298040e+00)) ((1.553242e-01 -8.075329e+01 -1.831296e-03) (-1.884410e-01 1.610885e+00 -3.886511e-02))
1.36606       	((3.285226e+02 1.067352e+00 -4.189901e-13) (-3.604800e-01 -4.400087e-02 -1.314002e+00)) ((1.416337e-01 -8.114497e+01 -1.805499e-03) (-1.881289e-01 1.674540e+00 -3.853655e-02))
1.36761       	((3.293535e+02 1.144805e+00 -4.190061e-13) (-4.150375e-01 -4.267337e-02 -1.329875e+00)) ((1.723146e-01 -8.139348e+01 -1.772786e-03) (-1.878035e-01 1.738176e+00 -3.826086e-02))
1.36921       	((3.304344e+02 1.146731e+00 -4.190299e-13) (-4.707785e-01 -4.173292e-02 -1.345631e+00)) ((1.686349e-01 -8.174098e+01 -1.761959e-03) (-1.874532e-01 1.803168e+00 -3.796944e-02))
1.37073       	((3.309291e+02 1.194209e+00 -4.190553e-13) (-5.237928e-01 -4.072351e-02 -1.360614e+00)) ((1.859339e-01 -8.190065e+01 -1.768940e-03) (-1.871479e-01 1.865142e+00 -3.772765e-02))
1.37237       	((3.323278e+02 1.186420e+00 -4.190987e-13) (-5.800429e-01 -3.970809e-02 -1.376483e+00)) ((1.777289e-01 -8.236222e+01 -1.763546e-03) (-1.869178e-01 1.931190e+00 -3.759048e-02))
1.37419       	((3.334777e+02 1.271484e+00 -4.191388e-13) (-6.425778e-01 -3.897063e-02 -1.394283e+00)) ((2.076302e-01 -8.273506e+01 -1.787865e-03) (-1.866508e-01 2.004423e+00 -3.749967e-02))
1.3762        	((3.347838e+02 1.276792e+00 -4.191626e-13) (-7.114323e-01 -3.810916e-02 -1.413825e+00)) ((2.033666e-01 -8.318895e+01 -1.811015e-03) (-1.863483e-01 2.084983e+00 -3.746242e-02))
1.37797       	((3.348419e+02 1.409556e+00 -4.191801e-13) (-7.717096e-01 -3.744059e-02 -1.430891e+00)) ((2.541427e-01 -8.320514e+01 -1.851650e-03) (-1.860633e-01 2.155786e+00 -3.747572e-02))
1.37966       	((3.358003e+02 1.383924e+00 -4.191852e-13) (-8.294195e-01 -3.713272e-02 -1.446647e+00)) ((2.355609e-01 -8.355694e+01 -1.897393e-03) (-1.858380e-01 2.222803e+00 -3.754084e-02))
1.38131       	((3.363712e+02 1.455257e+00 -4.191972e-13) (-8.854594e-01 -3.693146e-02 -1.461766e+00)) ((2.608544e-01 -8.375353e+01 -1.925249e-03) (-1.856150e-01 2.288129e+00 -3.762041e-02))
1.38294       	((3.371803e+02 1.536791e+00 -4.192244e-13) (-9.407494e-01 -3.684930e-02 -1.476606e+00)) ((2.872391e-01 -8.406246e+01 -1.933630e-03) (-1.853497e-01 2.352475e+00 -3.769363e-02))
1.38456       	((3.376883e+02 1.591955e+00 -4.192467e-13) (-9.955444e-01 -3.656083e-02 -1.491293e+00)) ((3.079764e-01 -8.425106e+01 -1.924252e-03) (-1.851054e-01 2.416158e+00 -3.779043e-02))
1.38622       	((3.385988e+02 1.603696e+00 -4.192651e-13) (-1.051358e+00 -3.653486e-02 -1.506123e+00)) ((3.068824e-01 -8.460578e+01 -1.922200e-03) (-1.848221e-01 2.481113e+00 -3.796019e-02))
1.38806       	((3.394700e+02 1.695244e+00 -4.192341e-13) (-1.113004e+00 -3.659178e-02 -1.522272e+00)) ((3.398198e-01 -8.492264e+01 -1.881717e-03) (-1.844772e-01 2.552809e+00 -3.818604e-02))
1.39009       	((3.404450e+02 1.735110e+00 -4.191859e-13) (-1.181067e+00 -3.676544e-02 -1.539471e+00)) ((3.493090e-01 -8.531502e+01 -1.821321e-03) (-1.840561e-01 2.631203e+00 -3.846768e-02))
1.3923        	((3.410996e+02 1.876665e+00 -4.191251e-13) (-1.254666e+00 -3.694108e-02 -1.557609e+00)) ((4.044114e-01 -8.557949e+01 -1.795190e-03) (-1.836600e-01 2.715353e+00 -3.881780e-02))
1.39458       	((3.419997e+02 1.945804e+00 -4.190316e-13) (-1.331046e+00 -3.735810e-02 -1.575734e+00)) ((4.272482e-01 -8.596459e+01 -1.803662e-03) (-1.833247e-01 2.801856e+00 -3.930688e-02))
1.39709       	((3.427888e+02 2.077667e+00 -4.189148e-13) (-1.414834e+00 -3.816263e-02 -1.595163e+00)) ((4.812485e-01 -8.629573e+01 -1.810499e-03) (-1.829657e-01 2.896121e+00 -3.989964e-02))
1.39977       	((3.436957e+02 2.057138e+00 -4.188075e-13) (-1.504307e+00 -3.886774e-02 -1.615019e+00)) ((4.768399e-01 -8.670243e+01 -1.855899e-03) (-1.825890e-01 2.995474e+00 -4.050500e-02))
1.40258       	((3.442013e+02 2.111585e+00 -4.187220e-13) (-1.599524e+00 -3.948083e-02 -1.635726e+00)) ((5.122862e-01 -8.694971e+01 -1.859416e-03) (-1.822515e-01 3.097981e+00 -4.122957e-02))
1.40528       	((3.447191e+02 2.106412e+00 -4.185927e-13) (-1.693613e+00 -3.998937e-02 -1.654782e+00)) ((5.181166e-01 -8.722086e+01 -1.873308e-03) (-1.819858e-01 3.195166e+00 -4.200031e-02))
1.4079        	((3.448050e+02 2.082418e+00 -4.184831e-13) (-1.784484e+00 -4.094402e-02 -1.673080e+00)) ((5.234690e-01 -8.732211e+01 -1.916992e-03) (-1.818551e-01 3.288251e+00 -4.275802e-02))
1.41045       	((3.453310e+02 1.913901e+00 -4.183559e-13) (-1.871698e+00 -4.184767e-02 -1.691259e+00)) ((4.701244e-01 -8.761099e+01 -1.920853e-03) (-1.817502e-01 3.378173e+00 -4.346822e-02))
1.41294       	((3.453591e+02 1.966834e+00 -4.182770e-13) (-1.956305e+00 -4.245771e-02 -1.709201e+00)) ((5.124128e-01 -8.769965e+01 -1.909210e-03) (-1.817375e-01 3.465052e+00 -4.413728e-02))
1.41538       	((3.460310e+02 1.866505e+00 -4.182360e-13) (-2.038888e+00 -4.325804e-02 -1.725848e+00)) ((4.886034e-01 -8.803716e+01 -1.902974e-03) (-1.817479e-01 3.548959e+00 -4.484068e-02))
1.41777       	((3.459691e+02 1.809762e+00 -4.181826e-13) (-2.119512e+00 -4.399932e-02 -1.741840e+00)) ((4.809235e-01 -8.809763e+01 -1.891810e-03) (-1.817075e-01 3.630497e+00 -4.548341e-02))
1.42017       	((3.466545e+02 1.722555e+00 -4.181329e-13) (-2.199450e+00 -4.472863e-02 -1.757271e+00)) ((4.588876e-01 -8.843170e+01 -1.909172e-03) (-1.817598e-01 3.710863e+00 -4.616236e-02))
1.4226        	((3.467420e+02 1.693873e+00 -4.180935e-13) (-2.279578e+00 -4.551327e-02 -1.772178e+00)) ((4.492771e-01 -8.855415e+01 -1.948849e-03) (-1.818593e-01 3.791349e+00 -4.677199e-02))
1.42514       	((3.473076e+02 1.691895e+00 -4.179564e-13) (-2.361811e+00 -4.785353e-02 -1.782131e+00)) ((4.427844e-01 -8.886284e+01 -2.043113e-03) (-1.807067e-01 3.870992e+00 -4.842125e-02))
1.4278        	((3.474047e+02 1.678416e+00 -4.179008e-13) (-2.447715e+00 -4.861193e-02 -1.796467e+00)) ((4.474155e-01 -8.900581e+01 -2.072551e-03) (-1.806804e-01 3.955552e+00 -4.898047e-02))
1.43063       	((3.479123e+02 1.648427e+00 -4.178526e-13) (-2.537091e+00 -4.914186e-02 -1.810432e+00)) ((4.312504e-01 -8.931929e+01 -2.086900e-03) (-1.807766e-01 4.043480e+00 -4.955441e-02))
1.43358       	((3.476225e+02 1.705766e+00 -4.177901e-13) (-2.627890e+00 -4.990553e-02 -1.823186e+00)) ((4.538117e-01 -8.936094e+01 -2.055101e-03) (-1.809962e-01 4.132700e+00 -5.008741e-02))
1.43652       	((3.476650e+02 1.662899e+00 -4.176989e-13) (-2.716761e+00 -5.073725e-02 -1.834476e+00)) ((4.308795e-01 -8.955667e+01 -2.058353e-03) (-1.811390e-01 4.219120e+00 -5.055453e-02))
1.4395        	((3.472323e+02 1.613454e+00 -4.176162e-13) (-2.805438e+00 -5.138767e-02 -1.844545e+00)) ((4.165425e-01 -8.956441e+01 -2.019157e-03) (-1.813264e-01 4.304411e+00 -5.093740e-02))
1.44249       	((3.471567e+02 1.513849e+00 -4.175518e-13) (-2.892765e+00 -5.179962e-02 -1.852876e+00)) ((3.649445e-01 -8.972826e+01 -2.005533e-03) (-1.815149e-01 4.387363e+00 -5.132329e-02))
1.44552       	((3.464899e+02 1.442667e+00 -4.175127e-13) (-2.979241e+00 -5.199992e-02 -1.860218e+00)) ((3.400152e-01 -8.964487e+01 -2.012128e-03) (-1.816708e-01 4.468737e+00 -5.163051e-02))
1.44857       	((3.460607e+02 1.321475e+00 -4.174411e-13) (-3.064820e+00 -5.218465e-02 -1.866595e+00)) ((2.872473e-01 -8.967833e+01 -2.062391e-03) (-1.816969e-01 4.547891e+00 -5.182211e-02))
1.45163       	((3.450597e+02 1.234830e+00 -4.173633e-13) (-3.148591e+00 -5.180373e-02 -1.872054e+00)) ((2.605994e-01 -8.950820e+01 -2.108429e-03) (-1.816882e-01 4.624717e+00 -5.195487e-02))
1.45472       	((3.444028e+02 1.145661e+00 -4.172276e-13) (-3.230366e+00 -5.174938e-02 -1.876149e+00)) ((2.190991e-01 -8.948907e+01 -2.102253e-03) (-1.818276e-01 4.699064e+00 -5.205417e-02))
1.45778       	((3.428917e+02 1.134283e+00 -4.170771e-13) (-3.309344e+00 -5.158575e-02 -1.880022e+00)) ((2.155981e-01 -8.915824e+01 -2.059279e-03) (-1.818820e-01 4.770550e+00 -5.197994e-02))
1.46082       	((3.419231e+02 1.055758e+00 -4.169191e-13) (-3.385984e+00 -5.121206e-02 -1.883232e+00)) ((1.882165e-01 -8.903243e+01 -2.027355e-03) (-1.819078e-01 4.838871e+00 -5.192272e-02))
1.46385       	((3.402762e+02 1.011032e+00 -4.167455e-13) (-3.459514e+00 -5.186027e-02 -1.880060e+00)) ((1.693977e-01 -8.866242e+01 -2.037266e-03) (-1.811134e-01 4.900816e+00 -5.238851e-02))
1.46685       	((3.389148e+02 1.012914e+00 -4.166089e-13) (-3.529945e+00 -5.157222e-02 -1.882225e+00)) ((1.737779e-01 -8.841931e+01 -2.055626e-03) (-1.812719e-01 4.963064e+00 -5.227597e-02))
1.46983       	((3.370759e+02 1.041716e+00 -4.164187e-13) (-3.598043e+00 -5.138743e-02 -1.884647e+00)) ((1.873677e-01 -8.798424e+01 -2.075101e-03) (-1.813053e-01 5.022611e+00 -5.205115e-02))
1.47279       	((3.357097e+02 1.005930e+00 -4.162108e-13) (-3.664206e+00 -5.101455e-02 -1.886656e+00)) ((1.734619e-01 -8.774324e+01 -2.107438e-03) (-1.814240e-01 5.079565e+00 -5.173555e-02))
1.47575       	((3.337987e+02 1.086099e+00 -4.159940e-13) (-3.728193e+00 -5.074729e-02 -1.888161e+00)) ((2.063602e-01 -8.730496e+01 -2.102860e-03) (-1.815344e-01 5.134043e+00 -5.134501e-02))
1.47873       	((3.322027e+02 1.101976e+00 -4.158294e-13) (-3.791141e+00 -5.056906e-02 -1.889543e+00)) ((2.077851e-01 -8.700943e+01 -2.087098e-03) (-1.817534e-01 5.186644e+00 -5.091997e-02))
1.48171       	((3.301589e+02 1.126278e+00 -4.156945e-13) (-3.852846e+00 -5.065565e-02 -1.890438e+00)) ((2.194296e-01 -8.654925e+01 -2.071496e-03) (-1.819451e-01 5.236854e+00 -5.037377e-02))
1.48469       	((3.283850e+02 1.084944e+00 -4.155429e-13) (-3.913919e+00 -5.039578e-02 -1.890374e+00)) ((2.087535e-01 -8.619939e+01 -2.074925e-03) (-1.822603e-01 5.284782e+00 -4.981699e-02))
1.48768       	((3.261721e+02 1.203339e+00 -4.153975e-13) (-3.973491e+00 -5.082332e-02 -1.888967e+00)) ((2.443359e-01 -8.567931e+01 -2.063022e-03) (-1.826854e-01 5.330506e+00 -4.922192e-02))