# Time step   
# Time        	deltaT
0             	1.000000e+00
1             	1.000000e+00
1.00568       	5.681818e-03
1.01214       	6.456612e-03
1.01601       	3.873967e-03
1.02022       	4.205075e-03
1.02459       	4.374029e-03
1.02854       	3.949022e-03
1.03222       	3.679771e-03
1.0358        	3.584369e-03
1.03922       	3.419132e-03
1.04257       	3.347652e-03
1.04591       	3.335988e-03
1.0493        	3.395347e-03
1.05282       	3.521101e-03
1.05644       	3.615176e-03
1.06017       	3.729490e-03
1.06404       	3.867619e-03
1.06805       	4.017012e-03
1.07223       	4.179134e-03
1.07659       	4.355717e-03
1.08086       	4.275055e-03
1.08504       	4.177895e-03
1.0892        	4.158905e-03
1.09338       	4.177982e-03
1.09761       	4.236552e-03
1.10193       	4.317634e-03
1.10636       	4.423980e-03
1.11089       	4.536264e-03
1.1155        	4.606776e-03
1.12015       	4.655268e-03
1.12494       	4.781770e-03
1.12982       	4.888625e-03
1.13485       	5.029915e-03
1.14          	5.149675e-03
1.14522       	5.212095e-03
1.15043       	5.212095e-03
1.15549       	5.056973e-03
1.16045       	4.967732e-03
1.16536       	4.909630e-03
1.17024       	4.880919e-03
1.1751        	4.852376e-03
1.17986       	4.768230e-03
1.1845        	4.633535e-03
1.18895       	4.456296e-03
1.19327       	4.314073e-03
1.19745       	4.179957e-03
1.2015        	4.053292e-03
1.20545       	3.952963e-03
1.20931       	3.857017e-03
1.21306       	3.747339e-03
1.21679       	3.729579e-03
1.22052       	3.729579e-03
1.22427       	3.747510e-03
1.22768       	3.417333e-03
1.23069       	3.005125e-03
1.23331       	2.625638e-03
1.23533       	2.017596e-03
1.23711       	1.782445e-03
1.23893       	1.816396e-03
1.24095       	2.018753e-03
1.24319       	2.245714e-03
1.24554       	2.343051e-03
1.2479        	2.365086e-03
1.25053       	2.629711e-03
1.25294       	2.409864e-03
1.25528       	2.334556e-03
1.25786       	2.585845e-03
1.26045       	2.585845e-03
1.26303       	2.576835e-03
1.2659        	2.878807e-03
1.26912       	3.219719e-03
1.27262       	3.497015e-03
1.27613       	3.513909e-03
1.2797        	3.565839e-03
1.28334       	3.637876e-03
1.28709       	3.752155e-03
1.2909        	3.812350e-03
1.29474       	3.832957e-03
1.29861       	3.875077e-03
1.30257       	3.962650e-03
1.30654       	3.962650e-03
1.31043       	3.895863e-03
1.31422       	3.788834e-03
1.31789       	3.667267e-03
1.3213        	3.410559e-03
1.32476       	3.462761e-03
1.32815       	3.393158e-03
1.3315        	3.342514e-03
1.33482       	3.325884e-03
1.33813       	3.309338e-03
1.34107       	2.941633e-03
1.34362       	2.544115e-03
1.34598       	2.361085e-03
1.34823       	2.247494e-03
1.35016       	1.928323e-03
1.35191       	1.756337e-03
1.35349       	1.576858e-03
1.35485       	1.361077e-03
1.35615       	1.298090e-03
1.35753       	1.384629e-03
1.35899       	1.456843e-03
1.36032       	1.327145e-03
1.36168       	1.366846e-03
1.36306       	1.378655e-03
1.36451       	1.447587e-03
1.36606       	1.546206e-03
1.36761       	1.553786e-03
1.36921       	1.596946e-03
1.37073       	1.527346e-03
1.37237       	1.634458e-03
1.37419       	1.819223e-03
1.3762        	2.012260e-03
1.37797       	1.772161e-03
1.37966       	1.685714e-03
1.38131       	1.649848e-03
1.38294       	1.632435e-03
1.38456       	1.619581e-03
1.38622       	1.658870e-03
1.38806       	1.843189e-03
1.39009       	2.033019e-03
1.3923        	2.201826e-03
1.39458       	2.284601e-03
1.39709       	2.512113e-03
1.39977       	2.679588e-03
1.40258       	2.804802e-03
1.40528       	2.703271e-03
1.4079        	2.619910e-03
1.41045       	2.552154e-03
1.41294       	2.487542e-03
1.41538       	2.435933e-03
1.41777       	2.396000e-03
1.42017       	2.396000e-03
1.4226        	2.436269e-03
1.42514       	2.532437e-03
1.4278        	2.661404e-03
1.43063       	2.832683e-03
1.43358       	2.950100e-03
1.43652       	2.934814e-03
1.4395        	2.981398e-03
1.44249       	2.997342e-03
1.44552       	3.029922e-03
1.44857       	3.046569e-03
1.45163       	3.063495e-03
1.45472       	3.080706e-03
1.45778       	3.063398e-03
1.46082       	3.046188e-03
1.46385       	3.029075e-03
1.46685       	2.995230e-03
1.46983       	2.978497e-03
1.47279       	2.961857e-03
1.47575       	2.961857e-03
1.47873       	2.978686e-03
1.48171       	2.978686e-03
1.48469       	2.978686e-03
1.48768       	2.996004e-03
1.49071       	3.031460e-03
1.49378       	3.067983e-03
1.49689       	3.105627e-03
1.50005       	3.164224e-03
1.50328       	3.225467e-03
1.50644       	3.163834e-03
1.50955       	3.104139e-03
1.51261       	3.065337e-03
1.51568       	3.065337e-03
1.51876       	3.084862e-03
1.52189       	3.124925e-03
1.52503       	3.145484e-03
1.5282        	3.166454e-03
1.53139       	3.187848e-03
1.53455       	3.166309e-03
1.53766       	3.102983e-03
1.5407        	3.041740e-03
1.5437        	3.001978e-03
1.54664       	2.943876e-03
1.54957       	2.924883e-03
1.55247       	2.906013e-03
1.55538       	2.906013e-03
1.55827       	2.887142e-03
1.56112       	2.849889e-03
1.56395       	2.831503e-03
1.56674       	2.795201e-03
1.5695        	2.759594e-03
1.57223       	2.724662e-03
1.57492       	2.690390e-03
1.57759       	2.673469e-03
1.58023       	2.640051e-03
1.58286       	2.623550e-03
1.58548       	2.623550e-03
1.58809       	2.607050e-03
1.59069       	2.607050e-03
1.59332       	2.623762e-03
1.59597       	2.658059e-03
1.59867       	2.693500e-03
1.6014        	2.730146e-03
1.60417       	2.768065e-03
1.60697       	2.807328e-03
1.6098        	2.827525e-03
1.61267       	2.869106e-03
1.61556       	2.890517e-03
1.61847       	2.912415e-03
1.62141       	2.934819e-03
1.62437       	2.957747e-03
1.62737       	3.005071e-03
1.6304        	3.029502e-03
1.63346       	3.054539e-03
1.63656       	3.106311e-03
1.63972       	3.160334e-03
1.64291       	3.188302e-03
1.64616       	3.246271e-03
1.64943       	3.276329e-03
1.65274       	3.307238e-03
1.65608       	3.339038e-03
1.65945       	3.371774e-03
1.66289       	3.439890e-03
1.66637       	3.475353e-03
1.66988       	3.511936e-03
1.67343       	3.549698e-03
1.67698       	3.549698e-03
1.68053       	3.549698e-03
1.68404       	3.510691e-03
1.68759       	3.550137e-03
1.69114       	3.550137e-03
1.69461       	3.470358e-03
1.69808       	3.470358e-03
1.70155       	3.470358e-03
1.70502       	3.470358e-03
1.70853       	3.511672e-03
1.71209       	3.554497e-03
1.71568       	3.598929e-03
1.71933       	3.645069e-03
1.72302       	3.693030e-03
1.72682       	3.794209e-03
1.73066       	3.847649e-03
1.73457       	3.903412e-03
1.73836       	3.791886e-03
1.7421        	3.737716e-03
1.74601       	3.907612e-03
1.7501        	4.096690e-03
1.7542        	4.096690e-03
1.75823       	4.029531e-03
1.76213       	3.899546e-03
1.76603       	3.899546e-03
1.76986       	3.835619e-03
1.77364       	3.772740e-03
1.77717       	3.536944e-03
1.78031       	3.138415e-03
1.78364       	3.328622e-03
1.78719       	3.546892e-03
1.79073       	3.546892e-03
1.79468       	3.948427e-03
1.79887       	4.190168e-03
1.80298       	4.104654e-03
1.80692       	3.940468e-03
1.8107        	3.785940e-03
1.81371       	3.004714e-03
1.81593       	2.217765e-03
1.81807       	2.140401e-03
1.82031       	2.246100e-03
1.82271       	2.395840e-03
1.82517       	2.462391e-03
1.82778       	2.609400e-03
1.83065       	2.870340e-03
1.83338       	2.731452e-03
1.83611       	2.731452e-03
1.83889       	2.777748e-03
1.84158       	2.685157e-03
1.84391       	2.329768e-03
1.8462        	2.295507e-03
1.84853       	2.330287e-03
1.85086       	2.330287e-03
1.85296       	2.100541e-03
1.85498       	2.014217e-03
1.85691       	1.933648e-03
1.85887       	1.960137e-03
1.86092       	2.045360e-03
1.86306       	2.139761e-03
1.86513       	2.074920e-03
1.86717       	2.043482e-03
1.86932       	2.142360e-03
1.87161       	2.292701e-03
1.87408       	2.469063e-03
1.87655       	2.469063e-03
1.87892       	2.374099e-03
1.88134       	2.421581e-03
1.88372       	2.373149e-03
1.88614       	2.422590e-03
1.88879       	2.647947e-03
1.89126       	2.471417e-03
1.89362       	2.363964e-03
1.89593       	2.312574e-03
1.8982        	2.262300e-03
1.90046       	2.262300e-03
1.90272       	2.262300e-03
1.90498       	2.262300e-03
1.90725       	2.262300e-03
1.90951       	2.262300e-03
1.91183       	2.320308e-03
1.91415       	2.320308e-03
1.91653       	2.384761e-03
1.91892       	2.384761e-03
1.92138       	2.457026e-03
1.92383       	2.457026e-03
1.92637       	2.538927e-03
1.929         	2.629603e-03
1.93163       	2.629603e-03
1.93416       	2.532211e-03
1.93669       	2.532211e-03
1.93923       	2.532211e-03
1.94176       	2.532211e-03
1.94441       	2.647311e-03
1.94705       	2.647311e-03
1.94946       	2.406646e-03
1.95166       	2.197373e-03
1.95386       	2.197373e-03
1.95605       	2.197373e-03
1.95825       	2.197373e-03
1.96057       	2.319449e-03
1.96289       	2.319449e-03
1.96536       	2.474079e-03
1.96767       	2.309140e-03
1.96969       	2.020498e-03
1.97171       	2.020498e-03
1.9736        	1.885798e-03
1.97563       	2.030859e-03
1.97766       	2.030859e-03
1.97989       	2.233945e-03
1.98213       	2.233945e-03
1.98436       	2.233945e-03
1.9866        	2.233945e-03
1.98883       	2.233945e-03
1.99106       	2.233945e-03
1.9933        	2.233945e-03
1.99553       	2.233945e-03
1.99777       	2.233945e-03
2             	2.233945e-03
2.00254       	2.544529e-03
2.00539       	2.849873e-03
2.00853       	3.137557e-03
2.0117        	3.167630e-03
2.01489       	3.188066e-03
2.01811       	3.219321e-03
2.02136       	3.251301e-03
2.02466       	3.306222e-03
2.028         	3.340190e-03
2.03136       	3.351708e-03
2.03471       	3.351708e-03
2.03807       	3.363386e-03
2.04143       	3.363386e-03
2.04479       	3.351626e-03
2.04814       	3.351626e-03
2.05149       	3.351626e-03
2.05484       	3.351626e-03
2.0582        	3.363554e-03
2.06158       	3.375610e-03
2.06497       	3.387796e-03
2.06838       	3.412524e-03
2.07182       	3.437709e-03
2.07529       	3.476335e-03
2.07881       	3.515989e-03
2.08237       	3.556715e-03
2.08597       	3.598558e-03
2.08962       	3.656135e-03
2.09331       	3.685740e-03
2.09701       	3.700783e-03
2.10072       	3.716013e-03
2.10446       	3.731432e-03
2.10814       	3.685365e-03
2.11177       	3.625440e-03
2.11535       	3.581584e-03
2.1189        	3.552817e-03
2.12243       	3.524394e-03
2.12595       	3.524394e-03
2.12947       	3.524394e-03
2.133         	3.524394e-03
2.13654       	3.538779e-03
2.14012       	3.582831e-03
2.14376       	3.643556e-03
2.14749       	3.722764e-03
2.15129       	3.805862e-03
2.15519       	3.893152e-03
2.15917       	3.984972e-03
2.16321       	4.042447e-03
2.16732       	4.101895e-03
2.17148       	4.163423e-03
2.17564       	4.163423e-03
2.17978       	4.142502e-03
2.18391       	4.121685e-03
2.18805       	4.142607e-03
2.19221       	4.163851e-03
2.1964        	4.185426e-03
2.20061       	4.207339e-03
2.20488       	4.274836e-03
2.20923       	4.344916e-03
2.21362       	4.393193e-03
2.21809       	4.468077e-03
2.22263       	4.546008e-03
2.22729       	4.654895e-03
2.23206       	4.769830e-03
2.23698       	4.922709e-03
2.2421        	5.120939e-03
2.2474        	5.299993e-03
2.25282       	5.414382e-03
2.25835       	5.534701e-03
2.26397       	5.618560e-03
2.26967       	5.705670e-03
2.27525       	5.575005e-03
2.28066       	5.408587e-03
2.28587       	5.212624e-03
2.29136       	5.493304e-03
2.29654       	5.172527e-03
2.30175       	5.210842e-03
2.30712       	5.371176e-03
2.31229       	5.170759e-03
2.31724       	4.947560e-03
2.32204       	4.808192e-03
2.32672       	4.675553e-03
2.33127       	4.549186e-03
2.33564       	4.370787e-03
2.33979       	4.152248e-03
2.34375       	3.953338e-03
2.34756       	3.815430e-03
2.35127       	3.707037e-03
2.35489       	3.624199e-03
2.35846       	3.564129e-03
2.36189       	3.430712e-03
2.36523       	3.340903e-03
2.36853       	3.306102e-03
2.37184       	3.306102e-03
2.3752        	3.359141e-03
2.37861       	3.414209e-03
2.38209       	3.471431e-03
2.38558       	3.491043e-03
2.38911       	3.531170e-03
2.39272       	3.614748e-03
2.39643       	3.702913e-03
2.40027       	3.844425e-03
2.40432       	4.052232e-03
2.40846       	4.136653e-03
2.41268       	4.225296e-03
2.417         	4.318501e-03
2.42139       	4.383441e-03
2.42587       	4.485381e-03
2.4305        	4.630071e-03
2.43533       	4.826261e-03
2.44011       	4.785360e-03
2.44478       	4.665726e-03
2.44944       	4.665726e-03
2.45419       	4.746170e-03
2.45911       	4.917203e-03
2.46421       	5.102758e-03
2.46946       	5.252839e-03
2.47499       	5.526424e-03
2.48082       	5.833448e-03
2.487         	6.180677e-03
2.4927        	5.699957e-03
2.49847       	5.764730e-03
2.50482       	6.348500e-03
2.51038       	5.563854e-03
2.51594       	5.563854e-03
2.52157       	5.628550e-03
2.52727       	5.695556e-03
2.53357       	6.303082e-03
2.54043       	6.859237e-03
2.54729       	6.859237e-03
2.55415       	6.859237e-03
2.5609        	6.755309e-03
2.56766       	6.755309e-03
2.57431       	6.651381e-03
2.58096       	6.651381e-03
2.58761       	6.651381e-03
2.59437       	6.760420e-03
2.60125       	6.875003e-03
2.60801       	6.758478e-03
2.61454       	6.533195e-03
2.62107       	6.533195e-03
2.62761       	6.533195e-03
2.63426       	6.649859e-03
2.64091       	6.649859e-03
2.64768       	6.775328e-03
2.65446       	6.775328e-03
2.66123       	6.775328e-03
2.66801       	6.775328e-03
2.67465       	6.639822e-03
2.68116       	6.507025e-03
2.68753       	6.376885e-03
2.69378       	6.249347e-03
2.69991       	6.124360e-03
2.70603       	6.124360e-03
2.71203       	5.999373e-03
2.71791       	5.876937e-03
2.72378       	5.876937e-03
2.72966       	5.876937e-03
2.73554       	5.876937e-03
2.74141       	5.876937e-03
2.74729       	5.876937e-03
2.75317       	5.876937e-03
2.75905       	5.876937e-03
2.76492       	5.876937e-03
2.7708        	5.876937e-03
2.77668       	5.876937e-03
2.7824        	5.726246e-03
2.78798       	5.579420e-03
2.79328       	5.300449e-03
2.79872       	5.439934e-03
2.80402       	5.296778e-03
2.80932       	5.296778e-03
2.81447       	5.153622e-03
2.81962       	5.153622e-03
2.82478       	5.153622e-03
2.82993       	5.153622e-03
2.83508       	5.153622e-03
2.84024       	5.153622e-03
2.84556       	5.325409e-03
2.85089       	5.325409e-03
2.85621       	5.325409e-03
2.86174       	5.530233e-03
2.86727       	5.530233e-03
2.87258       	5.309023e-03
2.87789       	5.309023e-03
2.88298       	5.087814e-03
2.88766       	4.680789e-03
2.89215       	4.493557e-03
2.89665       	4.493557e-03
2.90114       	4.493557e-03
2.90544       	4.298185e-03
2.90938       	3.940003e-03
2.913         	3.624803e-03
2.91663       	3.624803e-03
2.9201        	3.473769e-03
2.92358       	3.473769e-03
2.92705       	3.473769e-03
2.93052       	3.473769e-03
2.934         	3.473769e-03
2.93747       	3.473769e-03
2.94115       	3.678109e-03
2.94483       	3.678109e-03
2.94851       	3.678109e-03
2.95218       	3.678109e-03
2.95617       	3.984618e-03
2.96015       	3.984618e-03
2.96414       	3.984618e-03
2.96812       	3.984618e-03
2.97211       	3.984618e-03
2.97609       	3.984618e-03
2.98008       	3.984618e-03
2.98406       	3.984618e-03
2.98805       	3.984618e-03
2.99203       	3.984618e-03
2.99602       	3.984618e-03
3             	3.984618e-03
3.00442       	4.424779e-03
3.00895       	4.525342e-03
3.01319       	4.235256e-03
3.01687       	3.682144e-03
3.02          	3.130995e-03
3.02304       	3.043483e-03
3.02627       	3.224284e-03
3.0295        	3.234996e-03
3.03284       	3.335047e-03
3.03638       	3.542724e-03
3.03957       	3.190798e-03
3.04253       	2.964291e-03
3.04543       	2.892646e-03
3.04838       	2.955335e-03
3.05159       	3.204101e-03
3.05515       	3.565465e-03
3.05912       	3.969951e-03
3.06354       	4.417269e-03
3.06844       	4.902938e-03
3.0735        	5.062816e-03
3.0786        	5.090634e-03
3.08377       	5.176431e-03
3.08904       	5.265680e-03
3.09443       	5.390311e-03
3.09992       	5.488317e-03
3.10551       	5.590584e-03
3.1112        	5.697410e-03
3.11701       	5.809124e-03
3.12212       	5.103970e-03
3.12754       	5.419030e-03
3.13302       	5.487194e-03
3.1388        	5.779844e-03
3.14487       	6.064766e-03
3.15093       	6.064766e-03
3.15704       	6.108398e-03
3.16324       	6.198227e-03
3.16939       	6.152652e-03
3.17537       	5.975597e-03
3.18134       	5.975597e-03
3.18723       	5.889617e-03
3.19292       	5.683687e-03
3.19868       	5.764882e-03
3.20436       	5.683111e-03
3.21017       	5.807558e-03
3.21598       	5.807558e-03
3.22192       	5.939548e-03
3.22814       	6.224647e-03
3.23452       	6.378977e-03
3.24107       	6.542540e-03
3.2475        	6.431650e-03
3.25387       	6.377144e-03
3.26014       	6.269965e-03
3.26631       	6.165466e-03
3.27237       	6.063557e-03
3.27854       	6.166330e-03
3.28471       	6.166330e-03
3.29087       	6.166330e-03
3.29709       	6.220420e-03
3.30331       	6.220420e-03
3.30959       	6.276460e-03
3.31474       	5.152318e-03
3.31916       	4.421021e-03
3.32301       	3.846538e-03
3.3265        	3.489643e-03
3.32977       	3.269423e-03
3.33287       	3.102924e-03
3.33585       	2.978253e-03
3.33879       	2.938719e-03
3.34173       	2.938719e-03
3.34465       	2.925658e-03
3.34748       	2.824773e-03
3.35023       	2.753260e-03
3.35295       	2.718700e-03
3.35565       	2.696044e-03
3.35835       	2.707372e-03
3.36112       	2.765721e-03
3.36398       	2.864940e-03
3.36698       	3.000078e-03
3.37009       	3.103022e-03
3.37338       	3.297976e-03
3.37701       	3.622055e-03
3.381         	3.993548e-03
3.38542       	4.421428e-03
3.39034       	4.916628e-03
3.39525       	4.916628e-03
3.39984       	4.581403e-03
3.40435       	4.512510e-03
3.40893       	4.581933e-03
3.41358       	4.654090e-03
3.41831       	4.729156e-03
3.42316       	4.847384e-03
3.42801       	4.847384e-03
3.43294       	4.930960e-03
3.43787       	4.930960e-03
3.44169       	3.824010e-03
3.44527       	3.578881e-03
3.44866       	3.382479e-03
3.45184       	3.186960e-03
3.45489       	3.045317e-03
3.4577        	2.809855e-03
3.46009       	2.388995e-03
3.46228       	2.194768e-03
3.46457       	2.288162e-03
3.46669       	2.116324e-03
3.46897       	2.279118e-03
3.47082       	1.850295e-03
3.47265       	1.831087e-03
3.4746        	1.953160e-03
3.47677       	2.171074e-03
3.47899       	2.217072e-03
3.48094       	1.951355e-03
3.48273       	1.789864e-03
3.48449       	1.759424e-03
3.4863        	1.815180e-03
3.48809       	1.783667e-03
3.48973       	1.640745e-03
3.49128       	1.555706e-03
3.49284       	1.555706e-03
3.49443       	1.594843e-03
3.49611       	1.674058e-03
3.49792       	1.812559e-03
3.49966       	1.743329e-03
3.50151       	1.846256e-03
3.50356       	2.051396e-03
3.50572       	2.158425e-03
3.50775       	2.034071e-03
3.50972       	1.968981e-03
3.51162       	1.892959e-03
3.5134        	1.782421e-03
3.51522       	1.822475e-03
3.51725       	2.028362e-03
3.51951       	2.255842e-03
3.52202       	2.515677e-03
3.52482       	2.795196e-03
3.5276        	2.778850e-03
3.53037       	2.778850e-03
3.53322       	2.846216e-03
3.53616       	2.935720e-03
3.5394        	3.243663e-03
3.54303       	3.626772e-03
3.54662       	3.598215e-03
3.54971       	3.084184e-03
3.55307       	3.360380e-03
3.55679       	3.724421e-03
3.56055       	3.755984e-03
3.5647        	4.145756e-03
3.56928       	4.582151e-03
3.57435       	5.067320e-03
3.57873       	4.388195e-03
3.58321       	4.481561e-03
3.58818       	4.961728e-03
3.59367       	5.490979e-03
3.59973       	6.064663e-03
3.60619       	6.455932e-03
3.61216       	5.966846e-03
3.61762       	5.462606e-03
3.62293       	5.310867e-03
3.62824       	5.310867e-03
3.63363       	5.387836e-03
3.63858       	4.950984e-03
3.6434        	4.818958e-03
3.64828       	4.884971e-03
3.65324       	4.953773e-03
3.65812       	4.884002e-03
3.66322       	5.102689e-03
3.66833       	5.102689e-03
3.673         	4.671475e-03
3.67767       	4.671475e-03
3.68241       	4.740174e-03
3.68729       	4.886025e-03
3.69226       	4.963581e-03
3.6973        	5.044951e-03
3.70252       	5.218915e-03
3.70774       	5.218915e-03
3.71305       	5.313804e-03
3.71847       	5.414065e-03
3.72399       	5.520223e-03
3.72951       	5.520223e-03
3.73514       	5.635228e-03
3.7409        	5.757733e-03
3.74679       	5.888590e-03
3.75297       	6.175838e-03
3.75914       	6.175838e-03
3.76548       	6.338361e-03
3.772         	6.514426e-03
3.7787        	6.706027e-03
3.78541       	6.706027e-03
3.79172       	6.311555e-03
3.79784       	6.125921e-03
3.80397       	6.125921e-03
3.80991       	5.940287e-03
3.81567       	5.760278e-03
3.82126       	5.585724e-03
3.82667       	5.416460e-03
3.83193       	5.252325e-03
3.83718       	5.252325e-03
3.84243       	5.252325e-03
3.84768       	5.252325e-03
3.85293       	5.252325e-03
3.85819       	5.252325e-03
3.86325       	5.064742e-03
3.86814       	4.883858e-03
3.87302       	4.883858e-03
3.8779        	4.883858e-03
3.88197       	4.069882e-03
3.88578       	3.807309e-03
3.88935       	3.569352e-03
3.89292       	3.569352e-03
3.89661       	3.692433e-03
3.9003        	3.692433e-03
3.904         	3.692433e-03
3.90769       	3.692433e-03
3.91138       	3.692433e-03
3.91523       	3.852974e-03
3.91909       	3.852974e-03
3.92294       	3.852974e-03
3.92679       	3.852974e-03
3.93086       	4.067028e-03
3.93493       	4.067028e-03
3.93899       	4.067028e-03
3.94281       	3.812838e-03
3.94662       	3.812838e-03
3.95043       	3.812838e-03
3.95456       	4.130575e-03
3.95911       	4.543632e-03
3.96365       	4.543632e-03
3.96819       	4.543632e-03
3.97274       	4.543632e-03
3.97728       	4.543632e-03
3.98183       	4.543632e-03
3.98637       	4.543632e-03
3.99091       	4.543632e-03
3.99546       	4.543632e-03
4             	4.543632e-03
4.0051        	5.102041e-03
4.01079       	5.685131e-03
4.01634       	5.557375e-03
4.02184       	5.495282e-03
4.02743       	5.589487e-03
4.03318       	5.754856e-03
4.03908       	5.895218e-03
4.04483       	5.754016e-03
4.05066       	5.824187e-03
4.05667       	6.008496e-03
4.06275       	6.086025e-03
4.06847       	5.714926e-03
4.07425       	5.785919e-03
4.08019       	5.934276e-03
4.08616       	5.972810e-03
4.09198       	5.820637e-03
4.09776       	5.783563e-03
4.10317       	5.402609e-03
4.10826       	5.095643e-03
4.11322       	4.954097e-03
4.11814       	4.926574e-03
4.1231        	4.954252e-03
4.12811       	5.010872e-03
4.1333        	5.189832e-03
4.13882       	5.520394e-03
4.14366       	4.838098e-03
4.14852       	4.865587e-03
4.15333       	4.810609e-03
4.15814       	4.810609e-03
4.16298       	4.838256e-03
4.16788       	4.894844e-03
4.17277       	4.894844e-03
4.1777        	4.923980e-03
4.18262       	4.923980e-03
4.18751       	4.894495e-03
4.19241       	4.894495e-03
4.1973        	4.894495e-03
4.2022        	4.894495e-03
4.20712       	4.924708e-03
4.21199       	4.864282e-03
4.21691       	4.925086e-03
4.2219        	4.987826e-03
4.22698       	5.085626e-03
4.23217       	5.188021e-03
4.23747       	5.295360e-03
4.24288       	5.408027e-03
4.24836       	5.486404e-03
4.25397       	5.609234e-03
4.25976       	5.783164e-03
4.26577       	6.018252e-03
4.27194       	6.169972e-03
4.27833       	6.386463e-03
4.28483       	6.501534e-03
4.29164       	6.811131e-03
4.29845       	6.811131e-03
4.3054        	6.946005e-03
4.31228       	6.877232e-03
4.31902       	6.742385e-03
4.3257        	6.676283e-03
4.33224       	6.546646e-03
4.33866       	6.420749e-03
4.34508       	6.420749e-03
4.35144       	6.358412e-03
4.3578        	6.358412e-03
4.36416       	6.358412e-03
4.37052       	6.358412e-03
4.37688       	6.358412e-03
4.38323       	6.358412e-03
4.38966       	6.424645e-03
4.39608       	6.424645e-03
4.40244       	6.357018e-03
4.40866       	6.224580e-03
4.41476       	6.096238e-03
4.42073       	5.971825e-03
4.42658       	5.851182e-03
4.43232       	5.734158e-03
4.43794       	5.620611e-03
4.44345       	5.510402e-03
4.44885       	5.403404e-03
4.4541        	5.249021e-03
4.45925       	5.149983e-03
4.46435       	5.101399e-03
4.46936       	5.006045e-03
4.47432       	4.959260e-03
4.47919       	4.867422e-03
4.48396       	4.778111e-03
4.48861       	4.648973e-03
4.49318       	4.565956e-03
4.49766       	4.485142e-03
4.50215       	4.485142e-03
4.50663       	4.485142e-03
4.51112       	4.485142e-03
4.51565       	4.526671e-03
4.52017       	4.526671e-03
4.5247        	4.526671e-03
4.52923       	4.526671e-03
4.53371       	4.483560e-03
4.53819       	4.483560e-03
4.54272       	4.527517e-03
4.54729       	4.572792e-03
4.55187       	4.572792e-03
4.55644       	4.572792e-03
4.56101       	4.572792e-03
4.56558       	4.572792e-03
4.57021       	4.621439e-03
4.57483       	4.621439e-03
4.5795        	4.672224e-03
4.58422       	4.724721e-03
4.589         	4.779028e-03
4.59378       	4.779028e-03
4.59862       	4.835921e-03
4.60351       	4.894895e-03
4.60841       	4.894895e-03
4.61337       	4.956856e-03
4.61814       	4.773269e-03
4.6228        	4.656848e-03
4.62757       	4.774743e-03
4.63241       	4.836752e-03
4.63737       	4.967475e-03
4.64241       	5.036468e-03
4.64752       	5.108418e-03
4.65263       	5.108418e-03
4.65781       	5.184663e-03
4.663         	5.184663e-03
4.66818       	5.184663e-03
4.67345       	5.266959e-03
4.67872       	5.266959e-03
4.68407       	5.354741e-03
4.68952       	5.447065e-03
4.69506       	5.544334e-03
4.70071       	5.647006e-03
4.70658       	5.868458e-03
4.71269       	6.112977e-03
4.71907       	6.384665e-03
4.72561       	6.533145e-03
4.7323        	6.692490e-03
4.73916       	6.864092e-03
4.74621       	7.049608e-03
4.75368       	7.464291e-03
4.76138       	7.697550e-03
4.7699        	8.522288e-03
4.77812       	8.217921e-03
4.78633       	8.217921e-03
4.79488       	8.546637e-03
4.80343       	8.546637e-03
4.81071       	7.280469e-03
4.81662       	5.915381e-03
4.82254       	5.915381e-03
4.82776       	5.219454e-03
4.83254       	4.784499e-03
4.83747       	4.925220e-03
4.84255       	5.079133e-03
4.8478        	5.248437e-03
4.85227       	4.476608e-03
4.85689       	4.616502e-03
4.86166       	4.770386e-03
4.86627       	4.611373e-03
4.87105       	4.776065e-03
4.87549       	4.446681e-03
4.87994       	4.446681e-03
4.88439       	4.446681e-03
4.88901       	4.624548e-03
4.89364       	4.624548e-03
4.89826       	4.624548e-03
4.9031        	4.844765e-03
4.90795       	4.844765e-03
4.91306       	5.113918e-03
4.91818       	5.113918e-03
4.92363       	5.454846e-03
4.92909       	5.454846e-03
4.93454       	5.454846e-03
4.94049       	5.950742e-03
4.94644       	5.950742e-03
4.95239       	5.950742e-03
4.95834       	5.950742e-03
4.9643        	5.950742e-03
4.97025       	5.950742e-03
4.9762        	5.950742e-03
4.98215       	5.950742e-03
4.9881        	5.950742e-03
4.99405       	5.950742e-03
5             	5.950742e-03
5.00662       	6.622517e-03
5.01387       	7.250931e-03
5.02129       	7.414485e-03
5.0287        	7.414485e-03
5.03612       	7.414485e-03
5.04353       	7.414485e-03
5.05083       	7.301287e-03
5.05813       	7.301287e-03
5.06527       	7.135349e-03
5.07163       	6.358712e-03
5.07782       	6.189147e-03
5.08351       	5.692487e-03
5.08913       	5.622640e-03
5.09472       	5.588145e-03
5.10031       	5.588145e-03
5.10583       	5.519579e-03
5.11128       	5.452267e-03
5.11673       	5.452267e-03
5.12218       	5.452267e-03
5.12764       	5.452267e-03
5.13309       	5.452267e-03
5.13807       	4.982244e-03
5.14305       	4.982244e-03
5.14801       	4.953445e-03
5.15266       	4.655697e-03
5.15705       	4.390346e-03
5.16135       	4.300748e-03
5.16563       	4.278805e-03
5.16996       	4.323145e-03
5.17426       	4.300745e-03
5.17854       	4.278462e-03
5.18277       	4.234354e-03
5.18696       	4.190924e-03
5.19111       	4.148160e-03
5.19521       	4.106047e-03
5.19926       	4.044146e-03
5.20328       	4.023824e-03
5.20733       	4.044250e-03
5.21141       	4.085943e-03
5.21556       	4.150458e-03
5.21969       	4.128613e-03
5.22365       	3.960954e-03
5.22753       	3.881735e-03
5.2314        	3.862326e-03
5.2353        	3.901537e-03
5.23924       	3.941760e-03
5.24324       	4.003998e-03
5.24733       	4.090571e-03
5.25154       	4.204832e-03
5.25577       	4.228589e-03
5.2599        	4.134620e-03
5.26404       	4.134620e-03
5.26822       	4.181604e-03
5.2725        	4.279420e-03
5.27688       	4.382538e-03
5.28143       	4.547917e-03
5.28619       	4.758748e-03
5.29121       	5.026846e-03
5.29635       	5.136125e-03
5.3016        	5.251113e-03
5.30697       	5.372293e-03
5.31243       	5.456896e-03
5.31793       	5.500551e-03
5.32343       	5.500551e-03
5.32898       	5.545637e-03
5.33462       	5.638841e-03
5.3403        	5.687037e-03
5.34609       	5.786809e-03
5.35198       	5.891076e-03
5.35798       	6.000170e-03
5.36416       	6.173252e-03
5.37033       	6.173252e-03
5.37682       	6.491461e-03
5.38345       	6.629577e-03
5.38961       	6.165506e-03
5.39554       	5.926069e-03
5.40147       	5.926069e-03
5.40745       	5.985330e-03
5.41252       	5.064510e-03
5.41811       	5.595078e-03
5.42405       	5.937633e-03
5.43005       	5.999484e-03
5.43618       	6.128505e-03
5.44251       	6.335084e-03
5.449         	6.482411e-03
5.4554        	6.407034e-03
5.46166       	6.259746e-03
5.46792       	6.259746e-03
5.47441       	6.488761e-03
5.48032       	5.905502e-03
5.48643       	6.113931e-03
5.49254       	6.113931e-03
5.49806       	5.515829e-03
5.50318       	5.121842e-03
5.50796       	4.777102e-03
5.51256       	4.598519e-03
5.51703       	4.471954e-03
5.52138       	4.351091e-03
5.52521       	3.828960e-03
5.5286        	3.391364e-03
5.5317        	3.101313e-03
5.53465       	2.945273e-03
5.53761       	2.964032e-03