# Force coefficients
# liftDir     : (0.000000e+00 0.000000e+00 1.000000e+00)
# dragDir     : (1.000000e+00 0.000000e+00 0.000000e+00)
# pitchAxis   : (0.000000e+00 1.000000e+00 0.000000e+00)
# magUInf     : 1.376000e-01
# lRef        : 4.000000e-01
# Aref        : 1.256600e+00
# CofR        : (0.000000e+00 0.000000e+00 0.000000e+00)
# Time        	Cm            	Cd            	Cl            	Cl(f)         	Cl(r)         
0             	0.000000e+00	0.000000e+00	-1.101356e-19	-5.506782e-20	-5.506782e-20
0.05          	-2.571061e+02	5.137778e+01	1.237906e-02	-2.570999e+02	2.571123e+02
0.1           	-1.268188e+01	2.447699e+00	2.612692e-02	-1.266881e+01	1.269494e+01
